10
# ORCA AIMD Position Step 0, t=0.00 fs, E_Pot=-189.53603262 Hartree, Unit is Angstrom
 H      2.0340120890      0.1018972683      0.7375453159
 C      1.4718201055      0.0837045798     -0.1903871530
 H      1.6908336861      0.9847897820     -0.7564913506
 H      1.7878685318     -0.7718279924     -0.7807929578
 C     -0.0402942336     -0.0039493425      0.1034075046
 O     -0.4829026131     -0.0448087060      1.2380856018
 C     -0.9526715327     -0.0354993959     -1.1404021845
 H     -0.8066607872      0.8628635043     -1.7337230816
 H     -0.7092902900     -0.8936969829     -1.7606068992
 H     -1.9937149470     -0.0977727138     -0.8407348185
10
# ORCA AIMD Position Step 1, t=0.50 fs, E_Pot=-189.53579413 Hartree, Unit is Angstrom
 H      2.0382862004      0.1033938262      0.7401097116
 C      1.4693488711      0.0893791701     -0.1871032412
 H      1.6961743651      0.9863532218     -0.7566241362
 H      1.7951339645     -0.7784824983     -0.7754603170
 C     -0.0442309781     -0.0007067108      0.1014916739
 O     -0.4864382126     -0.0417096763      1.2365004616
 C     -0.9538127728     -0.0351512519     -1.1420511151
 H     -0.8028933186      0.8603867014     -1.7353039355
 H     -0.7192445629     -0.8891424959     -1.7612425245
 H     -1.9933235470     -0.1086202856     -0.8444166005
10
# ORCA AIMD Position Step 2, t=1.00 fs, E_Pot=-189.53515970 Hartree, Unit is Angstrom
 H      2.0422139807      0.1050138916      0.7425177707
 C      1.4669509533      0.0949349918     -0.1838694997
 H      1.7014256472      0.9879332091     -0.7567631995
 H      1.8018895985     -0.7841322918     -0.7696178756
 C     -0.0481303773      0.0025198497      0.0995975559
 O     -0.4899651460     -0.0386223122      1.2349196699
 C     -0.9549631230     -0.0347925731     -1.1436726119
 H     -0.7992995836      0.8580998801     -1.7369519504
 H     -0.7287774170     -0.8851281250     -1.7621981232
 H     -1.9930819984     -0.1191414017     -0.8480165958
10
# ORCA AIMD Position Step 3, t=1.50 fs, E_Pot=-189.53432690 Hartree, Unit is Angstrom
 H      2.0454911822      0.1068828347      0.7446528136
 C      1.4646842004      0.1002890530     -0.1807183400
 H      1.7065147652      0.9895401576     -0.7569061220
 H      1.8077036219     -0.7879503731     -0.7628517261
 C     -0.0519707008      0.0057254339      0.0977420461
 O     -0.4934874647     -0.0355465669      1.2333410857
 C     -0.9561347183     -0.0344142385     -1.1452495775
 H     -0.7960324122      0.8561667208     -1.7387315145
 H     -0.7375299538     -0.8821206051     -1.7637589359
 H     -1.9931255126     -0.1290593490     -0.8514694122
10
# ORCA AIMD Position Step 4, t=2.00 fs, E_Pot=-189.53352359 Hartree, Unit is Angstrom
 H      2.0478550037      0.1091197127      0.7464439996
 C      1.4625957987      0.1053788945     -0.1776738000
 H      1.7113662876      0.9911699268     -0.7570387209
 H      1.8122307448     -0.7893319332     -0.7548994155
 C     -0.0557306242      0.0089055267      0.0959413183
 O     -0.4970091520     -0.0324822752      1.2317627088
 C     -0.9573386320     -0.0340133332     -1.1467723655
 H     -0.7932364060      0.8547184957     -1.7406912305
 H     -0.7451928895     -0.8804667113     -1.7661281858
 H     -1.9935587708     -0.1381151133     -0.8547189738
10
# ORCA AIMD Position Step 5, t=2.50 fs, E_Pot=-189.53292724 Hartree, Unit is Angstrom
 H      2.0490985042      0.1118348443      0.7478809840
 C      1.4607191268      0.1101660283     -0.1747513064
 H      1.7159030381      0.9928041408     -0.7571348452
 H      1.8152334360     -0.7879336093     -0.7456656238
 C     -0.0593893705      0.0120562045      0.0942104485
 O     -0.5005340772     -0.0294291416      1.2301827908
 C     -0.9585841740     -0.0335958892     -1.1482419607
 H     -0.7910457201      0.8538422233     -1.7428575794
 H     -0.7515242637     -0.8803430856     -1.7693908306
 H     -1.9944472910     -0.1460748388     -0.8577225658
10
# ORCA AIMD Position Step 6, t=3.00 fs, E_Pot=-189.53261213 Hartree, Unit is Angstrom
 H      2.0490803295      0.1151274831      0.7490217372
 C      1.4590717440      0.1146372667     -0.1719579005
 H      1.7200477963      0.9944138056     -0.7571584053
 H      1.8165944067     -0.7836912686     -0.7352243645
 C     -0.0629268631      0.0151742819      0.0925631176
 O     -0.5040659456     -0.0263867483      1.2285999306
 C     -0.9598784592     -0.0331779910     -1.1496715363
 H     -0.7895817776      0.8535733760     -1.7452311283
 H     -0.7563596481     -0.8817307204     -1.7734947291
 H     -1.9958129324     -0.1527365292     -0.8604536648
10
# ORCA AIMD Position Step 7, t=3.50 fs, E_Pot=-189.53253913 Hartree, Unit is Angstrom
 H      2.0477291161      0.1190836370      0.7499928969
 C      1.4576543831      0.1188045331     -0.1692924661
 H      1.7237259327      0.9959654278     -0.7570675340
 H      1.8163224032     -0.7768224998     -0.7238120925
 C     -0.0663239499      0.0182574088      0.0910113219
 O     -0.5076082364     -0.0233545835      1.2270131544
 C     -0.9612262661     -0.0327848054     -1.1510859575
 H     -0.7889507775      0.8538939141     -1.7477857848
 H     -0.7596141466     -0.8844200173     -1.7782538971
 H     -1.9976339312     -0.1579358962     -0.8629032685
10
# ORCA AIMD Position Step 8, t=4.00 fs, E_Pot=-189.53258801 Hartree, Unit is Angstrom
 H      2.0450423111      0.1237740050      0.7509824392
 C      1.4564509516      0.1227033938     -0.1667458581
 H      1.7268687772      0.9974286698     -0.7568203147
 H      1.8145517017     -0.7678153271     -0.7118130052
 C     -0.0695627223      0.0213041251      0.0895650702
 O     -0.5111641415     -0.0203320749      1.2254219735
 C     -0.9626301282     -0.0324476912     -1.1525192971
 H     -0.7892409051      0.8547358224     -1.7504712495
 H     -0.7612771528     -0.8880448752     -1.7833730984
 H     -1.9998493581     -0.1615512144     -0.8650796074
10
# ORCA AIMD Position Step 9, t=4.50 fs, E_Pot=-189.53261891 Hartree, Unit is Angstrom
 H      2.0410794796      0.1292520060      0.7522248925
 C      1.4554296978      0.1263901353     -0.1643011504
 H      1.7294173504      0.9987844524     -0.7563813037
 H      1.8115337985     -0.7573997124     -0.6997347112
 C     -0.0726269399      0.0243138849      0.0882320734
 O     -0.5147365176     -0.0173186196      1.2238264125
 C     -0.9640905519     -0.0322000593     -1.1540108878
 H     -0.7905192952      0.8559896459     -1.7532184297
 H     -0.7614019370     -0.8921374873     -1.7884879170
 H     -2.0023673557     -0.1635070364     -0.8670063383
10
# ORCA AIMD Position Step 10, t=5.00 fs, E_Pot=-189.53254149 Hartree, Unit is Angstrom
 H      2.0359505784      0.1355518890      0.7539798664
 C      1.4545457894      0.1299368786     -0.1619344607
 H      1.7313259725      1.0000324340     -0.7557279759
 H      1.8076182928     -0.7464946705     -0.6881704068
 C     -0.0755025384      0.0272870586      0.0870174530
 O     -0.5183278618     -0.0143136021      1.2222270083
 C     -0.9656062610     -0.0320728811     -1.1556006858
 H     -0.7928289541      0.8575169107     -1.7559471999
 H     -0.7600924174     -0.8961921775     -1.7932117920
 H     -2.0050760647     -0.1637766179     -0.8687195160
10
# ORCA AIMD Position Step 11, t=5.50 fs, E_Pot=-189.53236543 Hartree, Unit is Angstrom
 H      2.0298002414      0.1426869514      0.7565054250
 C      1.4537455096      0.1334241651     -0.1596168794
 H      1.7325652469      1.0011968632     -0.7548562054
 H      1.8032198443     -0.7361234270     -0.6777437846
 C     -0.0781781785      0.0302249184      0.0859235038
 O     -0.5219403129     -0.0113164017      1.2206247830
 C     -0.9671744137     -0.0320906474     -1.1573247068
 H     -0.7961859469      0.8591648977     -1.7585755994
 H     -0.7574890958     -0.8997272852     -1.7971818315
 H     -2.0078558663     -0.1623829250     -0.8702637711
10
# ORCA AIMD Position Step 12, t=6.00 fs, E_Pot=-189.53220621 Hartree, Unit is Angstrom
 H      2.0227897603      0.1506479689      0.7600287681
 C      1.4529720071      0.1369308825     -0.1573178299
 H      1.7331239825      1.0023298490     -0.7537839316
 H      1.7987704189     -0.7272943928     -0.6690362433
 C     -0.0806457765      0.0331296047      0.0849495481
 O     -0.5255756678     -0.0083263974      1.2190211976
 C     -0.9687907895     -0.0322682866     -1.1592110938
 H     -0.8005771819      0.8607820674     -1.7610294047
 H     -0.7537554904     -0.9023374517     -1.8000976086
 H     -2.0105915081     -0.1593981655     -0.8716881807
10
# ORCA AIMD Position Step 13, t=6.50 fs, E_Pot=-189.53223229 Hartree, Unit is Angstrom
 H      2.0150790028      0.1594020516      0.7647175592
 C      1.4521720239      0.1405224106     -0.1550096561
 H      1.7330097258      1.0035111630     -0.7525522470
 H      1.7946612806     -0.7208580154     -0.6625030463
 C     -0.0829009533      0.0360040628      0.0840919051
 O     -0.5292353947     -0.0053429803      1.2174180955
 C     -0.9704499718     -0.0326092189     -1.1612771297
 H     -0.8059590788      0.8622325165     -1.7632510360
 H     -0.7490657771     -0.9037325878     -1.8017500313
 H     -2.0131828394     -0.1549418815     -0.8730422832
10
# ORCA AIMD Position Step 14, t=7.00 fs, E_Pot=-189.53256995 Hartree, Unit is Angstrom
 H      2.0068107476      0.1688922096      0.7706557096
 C      1.4513024308      0.1442392208     -0.1526725032
 H      1.7322476973      1.0048438441     -0.7512233001
 H      1.7911858449     -0.7173657492     -0.6583940072
 C     -0.0849433466      0.0388519392      0.0833439908
 O     -0.5329206264     -0.0023655788      1.2158176353
 C     -0.9721455641     -0.0331044980     -1.1635273030
 H     -0.8122573274      0.8634081209     -1.7652069046
 H     -0.7435939543     -0.9037627568     -1.8020395900
 H     -2.0155531894     -0.1491777114     -0.8743725916
10
# ORCA AIMD Position Step 15, t=7.50 fs, E_Pot=-189.53321666 Hartree, Unit is Angstrom
 H      1.9980996576      0.1790379149      0.7778272183
 C      1.4503350541      0.1480890758     -0.1502980222
 H      1.7308780873      1.0064452387     -0.7498747064
 H      1.7884986793     -0.7169685306     -0.6566999819
 C     -0.0867767523      0.0416774271      0.0826965500
 O     -0.5366321226      0.0006063059      1.2142222104
 C     -0.9738704556     -0.0337328949     -1.1659524406
 H     -0.8193678584      0.8642373925     -1.7668925345
 H     -0.7375047130     -0.9024296130     -1.8009843775
 H     -2.0176548081     -0.1423089507     -0.8757198267
10
# ORCA AIMD Position Step 16, t=8.00 fs, E_Pot=-189.53402027 Hartree, Unit is Angstrom
 H      1.9890273245      0.1897368762      0.7861107038
 C      1.4492585566      0.1520455630     -0.1478905768
 H      1.7289518675      1.0084338074     -0.7485906517
 H      1.7866033495     -0.7193876021     -0.6571431349
 C     -0.0884090882      0.0444850649      0.0821380129
 O     -0.5403702055      0.0035730684      1.2126343465
 C     -0.9756171254     -0.0344618117     -1.1685298993
 H     -0.8271590954      0.8646904463     -1.7683350269
 H     -0.7309462813     -0.8998850936     -1.7987183815
 H     -2.0194711693     -0.1345730132     -0.8771169642
10
# ORCA AIMD Position Step 17, t=8.50 fs, E_Pot=-189.53474162 Hartree, Unit is Angstrom
 H      1.9796437083      0.2008681018      0.7952857332
 C      1.4480770480      0.1560537389     -0.1454655579
 H      1.7265255139      1.0109130117     -0.7474505300
 H      1.7853721536     -0.7239680909     -0.6592157181
 C     -0.0898521945      0.0472795039      0.0816549606
 O     -0.5441346867      0.0065349864      1.2110565702
 C     -0.9773779330     -0.0352489899     -1.1712248337
 H     -0.8354755112      0.8647797931     -1.7695926541
 H     -0.7240457662     -0.8964174261     -1.7954801475
 H     -2.0210162498     -0.1262348489     -0.8785881010
10
# ORCA AIMD Position Step 18, t=9.00 fs, E_Pot=-189.53516234 Hartree, Unit is Angstrom
 H      1.9699741593      0.2122961438      0.8050502655
 C      1.4468061512      0.1600411699     -0.1430455884
 H      1.7236552959      1.0139546021     -0.7465166599
 H      1.7845893943     -0.7297970399     -0.6622557085
 C     -0.0911215023      0.0500652759      0.0812326795
 O     -0.5479248100      0.0094922396      1.2094912515
 C     -0.9791453048     -0.0360450475     -1.1739925609
 H     -0.8441424518      0.8645569433     -1.7707515658
 H     -0.7169078088     -0.8924239729     -1.7915916034
 H     -2.0223311363     -0.1175793721     -0.8801480945
10
# ORCA AIMD Position Step 19, t=9.50 fs, E_Pot=-189.53517488 Hartree, Unit is Angstrom
 H      1.9600303384      0.2238762475      0.8150468842
 C      1.4454678634      0.1639310980     -0.1406560684
 H      1.7203919864      1.0175842370     -0.7458231347
 H      1.7840035695     -0.7358496597     -0.6655377138
 C     -0.0922356028      0.0528465829      0.0808557725
 O     -0.5517392228      0.0124449572      1.2079404310
 C     -0.9809117056     -0.0367968646     -1.1767819856
 H     -0.8529720923      0.8641050725     -1.7719197873
 H     -0.7096174863     -0.8883707656     -1.7874271792
 H     -2.0234784654     -0.1089030170     -0.8818029020
10
# ORCA AIMD Position Step 20, t=10.00 fs, E_Pot=-189.53481385 Hartree, Unit is Angstrom
 H      1.9498229142      0.2354600137      0.8248943528
 C      1.4440854755      0.1676545173     -0.1383213468
 H      1.7167769097      1.0217722715     -0.7453679567
 H      1.7833751732     -0.7411282897     -0.6683583428
 C     -0.0932157515      0.0556271267      0.0805087885
 O     -0.5555759837      0.0153932851      1.2064056521
 C     -0.9826693028     -0.0374517178     -1.1795399059
 H     -0.8617702570      0.8635283152     -1.7732189076
 H     -0.7022480612     -0.8847402841     -1.7833746710
 H     -2.0245352801     -0.1005046496     -0.8835505417
10
# ORCA AIMD Position Step 21, t=10.50 fs, E_Pot=-189.53422614 Hartree, Unit is Angstrom
 H      1.9393739503      0.2469011693      0.8342206157
 C      1.4426793270      0.1711591757     -0.1360621257
 H      1.7128400626      1.0264317191     -0.7451101548
 H      1.7825127338     -0.7447722673     -0.6701034166
 C     -0.0940853372      0.0584099714      0.0801768252
 O     -0.5594325925      0.0183374534      1.2048878161
 C     -0.9844093166     -0.0379618288     -1.1822158057
 H     -0.8703437265      0.8629385995     -1.7747740788
 H     -0.6948731958     -0.8819720450     -1.7797914916
 H     -2.0255848974     -0.0926761744     -0.8853825854
10
# ORCA AIMD Position Step 22, t=11.00 fs, E_Pot=-189.53360409 Hartree, Unit is Angstrom
 H      1.9287272907      0.2580611108      0.8426936857
 C      1.4412636504      0.1744149409     -0.1338940250
 H      1.7086006610      1.0314240597     -0.7449726799
 H      1.7812957755     -0.7461326073     -0.6702936419
 C     -0.0948693402      0.0611974292      0.0798460634
 O     -0.5633060332      0.0212778299      1.2033870771
 C     -0.9861211793     -0.0382887295     -1.1847665268
 H     -0.8785075878      0.8624412877     -1.7767031588
 H     -0.6875816981     -0.8804040341     -1.7769623220
 H     -2.0267083380     -0.0856932365     -0.8872860979
10
# ORCA AIMD Position Step 23, t=11.50 fs, E_Pot=-189.53311284 Hartree, Unit is Angstrom
 H      1.9179558296      0.2688140046      0.8500476904
 C      1.4398444321      0.1774159697     -0.1318268800
 H      1.7040699676      1.0365721506     -0.7448507814
 H      1.7796869808     -0.7448157665     -0.6686114453
 C     -0.0955937990      0.0639909527      0.0795041975
 O     -0.5671928159      0.0242149466      1.2019027841
 C     -0.9877917742     -0.0384066752     -1.1871600895
 H     -0.8860921872      0.8621211656     -1.7791059868
 H     -0.6804912949     -0.8802253407     -1.7750655799
 H     -2.0279758163     -0.0798064187     -0.8892459206
10
# ORCA AIMD Position Step 24, t=12.00 fs, E_Pot=-189.53283789 Hartree, Unit is Angstrom
 H      1.9071651270      0.2790513281      0.8561023463
 C      1.4384181201      0.1801805099     -0.1298643284
 H      1.6992558294      1.0416783699     -0.7446246212
 H      1.7777367547     -0.7407042901     -0.6649137243
 C     -0.0962852996      0.0667910263      0.0791407420
 O     -0.5710890166      0.0271495008      1.2004334736
 C     -0.9894050867     -0.0383043953     -1.1893780065
 H     -0.8929493027      0.8620304635     -1.7820548629
 H     -0.6737571820     -0.8814498318     -1.7741554054
 H     -2.0294387831     -0.0752332890     -0.8912471631
10
# ORCA AIMD Position Step 25, t=12.50 fs, E_Pot=-189.53276739 Hartree, Unit is Angstrom
 H      1.8964932714      0.2886857815      0.8607749861
 C      1.4369710472      0.1827490979     -0.1280034374
 H      1.6941680978      1.0465455195     -0.7441743043
 H      1.7755825815     -0.7339606557     -0.6592343519
 C     -0.0969704941      0.0695970591      0.0787472089
 O     -0.5749903199      0.0300823323      1.1989769089
 C     -0.9909425371     -0.0379848108     -1.1914157214
 H     -0.8989572323      0.8621805118     -1.7855872681
 H     -0.6675718849     -0.8839166934     -1.7741627484
 H     -2.0311230664     -0.0721515806     -0.8932776996
10
# ORCA AIMD Position Step 26, t=13.00 fs, E_Pot=-189.53281160 Hartree, Unit is Angstrom
 H      1.8861071822      0.2976544775      0.8640848270
 C      1.4354795576      0.1851815790     -0.1262343878
 H      1.6888240596      1.0509979479     -0.7433953614
 H      1.7734439579     -0.7250165391     -0.6517778141
 C     -0.0976756537      0.0724072907      0.0783171649
 O     -0.5788920788      0.0330143886      1.1975301633
 C     -0.9923840682     -0.0374628543     -1.1932812172
 H     -0.9040245878      0.8625382987     -1.7897017001
 H     -0.6621552133     -0.8873173492     -1.7749146100
 H     -2.0330237598     -0.0706937135     -0.8953303935
10
# ORCA AIMD Position Step 27, t=13.50 fs, E_Pot=-189.53285083 Hartree, Unit is Angstrom
 H      1.8761956960      0.3059212457      0.8661494545
 C      1.4339109445      0.1875529554     -0.1245404729
 H      1.6832531283      1.0549006609     -0.7422129066
 H      1.7716119461     -0.7145450087     -0.6429025530
 C     -0.0984262569      0.0752187267      0.0778461825
 O     -0.5827894044      0.0359466869      1.1960897412
 C     -0.9937098182     -0.0367619915     -1.1949922188
 H     -0.9080926594      0.8630285941     -1.7943571931
 H     -0.6577358800     -0.8912422076     -1.7761664132
 H     -2.0351025637     -0.0709428081     -0.8974047243
10
# ORCA AIMD Position Step 28, t=14.00 fs, E_Pot=-189.53279521 Hartree, Unit is Angstrom
 H      1.8669598911      0.3134777938      0.8671736351
 C      1.4322254117      0.1899477175     -0.1228988381
 H      1.6775002410      1.0581746613     -0.7405930443
 H      1.7704309760     -0.7034094917     -0.6330905077
 C     -0.0992466159      0.0780271238      0.0773317054
 O     -0.5866772940      0.0388802789      1.1946517341
 C     -0.9949020332     -0.0359102665     -1.1965726180
 H     -0.9111362944      0.8635415340     -1.7994766602
 H     -0.6545284413     -0.8952372851     -1.7776404228
 H     -2.0372882134     -0.0729302920     -0.8995075133
10
# ORCA AIMD Position Step 29, t=14.50 fs, E_Pot=-189.53263424 Hartree, Unit is Angstrom
 H      1.8586011954      0.3203434110      0.8674307541
 C      1.4303792890      0.1924522146     -0.1212823828
 H      1.6716276085      1.0608071863     -0.7385504627
 H      1.7702700288     -0.6925827226     -0.6228991783
 C     -0.1001595444      0.0808270348      0.0767728481
 O     -0.5905507994      0.0418162210      1.1932120085
 C     -0.9959468340     -0.0349366256     -1.1980487464
 H     -0.9131633072      0.8639447613     -1.8049537096
 H     -0.6527098640     -0.8988607777     -1.7790634712
 H     -2.0394803677     -0.0766351492     -0.9016525377
10
# ORCA AIMD Position Step 30, t=15.00 fs, E_Pot=-189.53245165 Hartree, Unit is Angstrom
 H      1.8513079394      0.3265629310      0.8672375336
 C      1.4283296114      0.1951449721     -0.1196630095
 H      1.6657146229      1.0628558060     -0.7361514300
 H      1.7714815580     -0.6830335111     -0.6128955782
 C     -0.1011860704      0.0836119198      0.0761701512
 O     -0.5944052214      0.0447555440      1.1917664194
 C     -0.9968355286     -0.0338680091     -1.1994459733
 H     -0.9142125237      0.8640985884     -1.8106621362
 H     -0.6523993080     -0.9017321942     -1.7801991946
 H     -2.0415569251     -0.0819848051     -0.9038589830
10
# ORCA AIMD Position Step 31, t=15.50 fs, E_Pot=-189.53238977 Hartree, Unit is Angstrom
 H      1.8452411443      0.3322028252      0.8669233172
 C      1.4260398396      0.1980857627     -0.1180158693
 H      1.6598558217      1.0644455182     -0.7335116052
 H      1.7743501263     -0.6755902313     -0.6035781422
 C     -0.1023451901      0.0863743147      0.0755253114
 O     -0.5982363119      0.0476992185      1.1903110441
 C     -0.9975653128     -0.0327273988     -1.2007859179
 H     -0.9143506557      0.8638723047     -1.8164669807
 H     -0.6536433278     -0.9035699926     -1.7808723202
 H     -2.0433842661     -0.0888575744     -0.9061488584
10
# ORCA AIMD Position Step 32, t=16.00 fs, E_Pot=-189.53257210 Hartree, Unit is Angstrom
 H      1.8405205004      0.3373455777      0.8667961140
 C      1.4234859922      0.2013054590     -0.1163236037
 H      1.6541568795      1.0657581598     -0.7307882537
 H      1.7790383601     -0.6708048905     -0.5953011449
 C     -0.1036536545      0.0891060431      0.0748409082
 O     -0.6020404582      0.0506481087      1.1888424233
 C     -0.9981393351     -0.0315327775     -1.2020844064
 H     -0.9136682687      0.8631597475     -1.8222359302
 H     -0.6564073554     -0.9042163948     -1.7809843580
 H     -2.0448295196     -0.0970865398     -0.9085436503
10
# ORCA AIMD Position Step 33, t=16.50 fs, E_Pot=-189.53302425 Hartree, Unit is Angstrom
 H      1.8372116881      0.3420828697      0.8671086932
 C      1.4206619829      0.2047995602     -0.1145791795
 H      1.6487286822      1.0670139026     -0.7281667624
 H      1.7855429956     -0.6688525512     -0.5882215548
 C     -0.1051257711      0.0917984513      0.0741201388
 O     -0.6058148309      0.0536029178      1.1873577935
 C     -0.9985661965     -0.0302968591     -1.2033502223
 H     -0.9122751484      0.8618925073     -1.8278499004
 H     -0.6605734653     -0.9036495398     -1.7805209824
 H     -2.0457736820     -0.1064647096     -0.9110605956
10
# ORCA AIMD Position Step 34, t=17.00 fs, E_Pot=-189.53364441 Hartree, Unit is Angstrom
 H      1.8353164240      0.3465084584      0.8680290472
 C      1.4175828362      0.2085279435     -0.1127862163
 H      1.6436797100      1.0684455472     -0.7258419437
 H      1.7936746421     -0.6694978849     -0.5822850399
 C     -0.1067732040      0.0944426517      0.0733665751
 O     -0.6095574872      0.0565641344      1.1858552937
 C     -0.9988589972     -0.0290274466     -1.2045846654
 H     -0.9102953571      0.8600495284     -1.8332118316
 H     -0.6659441102     -0.9019834646     -1.7795515554
 H     -2.0461243179     -0.1167513143     -0.9137090057
10
# ORCA AIMD Position Step 35, t=17.50 fs, E_Pot=-189.53424502 Hartree, Unit is Angstrom
 H      1.8347667501      0.3507118371      0.8696200009
 C      1.4142849106      0.2124215950     -0.1109567062
 H      1.6391072446      1.0702678296     -0.7239955801
 H      1.8030690884     -0.6721408025     -0.5772553638
 C     -0.1086047600      0.0970297668      0.0725839458
 O     -0.6132674327      0.0595319952      1.1843341270
 C     -0.9990340387     -0.0277283421     -1.2057819436
 H     -0.9078622318      0.8576622684     -1.8382529623
 H     -0.6722515492     -0.8994560594     -1.7782209935
 H     -2.0458265904     -0.1276791304     -0.9164870857
10
# ORCA AIMD Position Step 36, t=18.00 fs, E_Pot=-189.53463879 Hartree, Unit is Angstrom
 H      1.8354249412      0.3547736746      0.8718320832
 C      1.4108231096      0.2163946668     -0.1091071562
 H      1.6350883030      1.0726457098     -0.7227728618
 H      1.8132278045     -0.6759261047     -0.5727761906
 C     -0.1106261606      0.0995511774      0.0717759531
 O     -0.6169446548      0.0625064756      1.1827946666
 C     -0.9991092875     -0.0264007920     -1.2069304180
 H     -0.9051135252      0.8548149475     -1.8429360707
 H     -0.6791727305     -0.8964048179     -1.7767339659
 H     -2.0448714847     -0.1389627110     -0.9193796648
10
# ORCA AIMD Position Step 37, t=18.50 fs, E_Pot=-189.53471737 Hartree, Unit is Angstrom
 H      1.8370898158      0.3587636269      0.8745117409
 C      1.4072658484      0.2203585775     -0.1072546900
 H      1.6316715532      1.0756669283     -0.7222613921
 H      1.8235765302     -0.6798837130     -0.5684453913
 C     -0.1128398102      0.1019987731      0.0709461311
 O     -0.6205901345      0.0654873115      1.1812384997
 C     -0.9991027070     -0.0250454596     -1.2080146877
 H     -0.9021868657      0.8516397517     -1.8472553777
 H     -0.6863491616     -0.8932305502     -1.7753316252
 H     -2.0433002639     -0.1503073302     -0.9223571905
10
# ORCA AIMD Position Step 38, t=19.00 fs, E_Pot=-189.53448487 Hartree, Unit is Angstrom
 H      1.8395092615      0.3627405442      0.8774240104
 C      1.4036888760      0.2242347979     -0.1054142910
 H      1.6288716086      1.0793242441     -0.7224767281
 H      1.8335279884     -0.6830648466     -0.5638831242
 C     -0.1152445765      0.1043652036      0.0700977556
 O     -0.6242058411      0.0684740475      1.1796684142
 C     -0.9990305965     -0.0236648367     -1.2090184010
 H     -0.8992156989      0.8483072087     -1.8512330304
 H     -0.6934106513     -0.8903506765     -1.7742619757
 H     -2.0412044485     -0.1614183235     -0.9253762332
10
# ORCA AIMD Position Step 39, t=19.50 fs, E_Pot=-189.53404129 Hartree, Unit is Angstrom
 H      1.8423977094      0.3667545621      0.8802858848
 C      1.4001689194      0.2279641232     -0.1035975351
 H      1.6266668728      1.0835113196     -0.7233575883
 H      1.8425377697     -0.6846514944     -0.5587828589
 C     -0.1178356017      0.1066441192      0.0692338124
 O     -0.6277947027      0.0714660965      1.1780883321
 C     -0.9989061233     -0.0222658400     -1.2099275343
 H     -0.8963258540      0.8450123580     -1.8549123557
 H     -0.7000008860     -0.8881462376     -1.7737465509
 H     -2.0387209436     -0.1720103792     -0.9283816068
10
# ORCA AIMD Position Step 40, t=20.00 fs, E_Pot=-189.53353376 Hartree, Unit is Angstrom
 H      1.8454564982      0.3708502724      0.8828048648
 C      1.3967777747      0.2315117495     -0.1018124649
 H      1.6250015119      1.0880334906     -0.7247719992
 H      1.8501479726     -0.6840316145     -0.5529430510
 C     -0.1206041653      0.1088303843      0.0683570263
 O     -0.6313605448      0.0744627964      1.1765032006
 C     -0.9987382710     -0.0208621374     -1.2107337029
 H     -0.8936328312      0.8419578003     -1.8583484218
 H     -0.7058019421     -0.8869096376     -1.7739478517
 H     -2.0360223748     -0.1818162591     -0.9313100409
10
# ORCA AIMD Position Step 41, t=20.50 fs, E_Pot=-189.53310026 Hartree, Unit is Angstrom
 H      1.8483947888      0.3750701422      0.8847169960
 C      1.3935771488      0.2348686307     -0.1000639706
 H      1.6237913338      1.0926315585     -0.7265333848
 H      1.8560179412     -0.6808431391     -0.5462825192
 C     -0.1235376190      0.1109202546      0.0674699466
 O     -0.6349079900      0.0774634530      1.1749188465
 C     -0.9985314189     -0.0194756221     -1.2114369573
 H     -0.8912398189      0.8393351853     -1.8615968476
 H     -0.7105545057     -0.8868020744     -1.7749431711
 H     -2.0333032137     -0.1905944410     -0.9340951511
10
# ORCA AIMD Position Step 42, t=21.00 fs, E_Pot=-189.53282527 Hartree, Unit is Angstrom
 H      1.8509489279      0.3794575102      0.8858197784
 C      1.3906143903      0.2380501326     -0.0983541547
 H      1.6229326369      1.0970143484     -0.7284237326
 H      1.8599438979     -0.6749940463     -0.5388441718
 C     -0.1266194178      0.1129115080      0.0665750767
 O     -0.6384423208      0.0804673632      1.1733418003
 C     -0.9982856865     -0.0181365074     -1.2120475209
 H     -0.8892363424      0.8373070962     -1.8647021900
 H     -0.7140711003     -0.8878292279     -1.7767101493
 H     -2.0307628347     -0.1981352866     -0.9366732619
10
# ORCA AIMD Position Step 43, t=21.50 fs, E_Pot=-189.53271960 Hartree, Unit is Angstrom
 H      1.8528986815      0.3840587111      0.8859969636
 C      1.3879192135      0.2410930045     -0.0966824405
 H      1.6223126726      1.1008947484     -0.7302200648
 H      1.8618694645     -0.6666649046     -0.5307907804
 C     -0.1298292788      0.1148035297      0.0656750309
 O     -0.6419693135      0.0834738206      1.1717790936
 C     -0.9979980273     -0.0168817870     -1.2125860987
 H     -0.8876973464      0.8359914918     -1.8676875059
 H     -0.7162409689     -0.8898405092     -1.7791273173
 H     -2.0285871680     -0.2042655226     -0.9389894805
10
# ORCA AIMD Position Step 44, t=22.00 fs, E_Pot=-189.53272792 Hartree, Unit is Angstrom
 H      1.8540793289      0.3889240570      0.8852337528
 C      1.3855015849      0.2440513493     -0.0950454675
 H      1.6218203100      1.1040243053     -0.7317205730
 H      1.8618877468     -0.6562967479     -0.5223944185
 C     -0.1331434966      0.1165973546      0.0647726979
 O     -0.6454950565      0.0864821109      1.1702380343
 C     -0.9976638903     -0.0157522228     -1.2130826747
 H     -0.8866824553      0.8354507453     -1.8705467255
 H     -0.7170269613     -0.8925518957     -1.7819895676
 H     -2.0269309798     -0.2088510543     -0.9410033268
10
# ORCA AIMD Position Step 45, t=22.50 fs, E_Pot=-189.53276068 Hartree, Unit is Angstrom
 H      1.8543890269      0.3941075254      0.8836219067
 C      1.3833510518      0.2469918050     -0.0934370132
 H      1.6213557255      1.1062226530     -0.7327675716