13
# ORCA AIMD Position Step 0, t=0.00 fs, E_Pot=-317.69949466 Hartree, Unit is Angstrom
 C     -0.1732038632     -0.6421809053      0.0425072721
 C     -0.5217850128      0.7523104415      0.6718891665
 O     -0.9519705955      1.6939249815     -0.2447853463
 C      1.3539655683     -0.7515626205     -0.1679152777
 N     -0.8849150216     -0.7238881192     -1.2648712909
 O     -0.4068566915      1.0110212409      1.8543366886
 H     -0.4071964306     -1.4130461294     -1.8636427870
 H     -0.4918077426     -1.4220140014      0.7407845448
 H     -1.0188586480      1.1750783990     -1.0867815114
 H      1.6984853628      0.0116616658     -0.8595610297
 H      1.6110163729     -1.7270802926     -0.5712569690
 H      1.8684681004     -0.6225092331      0.7793135246
 H     -1.8273413993     -1.1097154441     -1.1020169983
13
# ORCA AIMD Position Step 1, t=0.50 fs, E_Pot=-317.69914246 Hartree, Unit is Angstrom
 C     -0.1728753126     -0.6401609463      0.0438416206
 C     -0.5240323532      0.7589615830      0.6768534386
 O     -0.9516143744      1.6959687689     -0.2443693329
 C      1.3552731888     -0.7522105331     -0.1656748728
 N     -0.8886572781     -0.7201213194     -1.2657007144
 O     -0.4103065747      1.0147624577      1.8537997995
 H     -0.4055274391     -1.4159023643     -1.8661995668
 H     -0.4870064601     -1.4245724819      0.7402524984
 H     -1.0295604885      1.1804640234     -1.0862456178
 H      1.6994722893     -0.0003542921     -0.8624667505
 H      1.6134052610     -1.7274956898     -0.5779174971
 H      1.8686255120     -0.6257078052      0.7819436412
 H     -1.8191959711     -1.1116314177     -1.1001166597
13
# ORCA AIMD Position Step 2, t=1.00 fs, E_Pot=-317.69819679 Hartree, Unit is Angstrom
 C     -0.1725505365     -0.6381163461      0.0451780936
 C     -0.5262921213      0.7655741918      0.6816995406
 O     -0.9512631478      1.6980506830     -0.2439413938
 C      1.3565714226     -0.7529204675     -0.1634367463
 N     -0.8922974047     -0.7163562519     -1.2665681967
 O     -0.4137699745      1.0185517402      1.8533506803
 H     -0.4043105395     -1.4180525075     -1.8682177142
 H     -0.4822722027     -1.4270208011      0.7396758809
 H     -1.0402248814      1.1856665907     -1.0856794885
 H      1.7006430589     -0.0118665410     -0.8655501986
 H      1.6156332920     -1.7277063756     -0.5842736977
 H      1.8688699916     -0.6288913920      0.7845723321
 H     -1.8121207855     -1.1139755894     -1.0980125022
13
# ORCA AIMD Position Step 3, t=1.50 fs, E_Pot=-317.69694785 Hartree, Unit is Angstrom
 C     -0.1722348811     -0.6360359968      0.0465108890
 C     -0.5285621918      0.7720699271      0.6862805514
 O     -0.9509241162      1.7001960508     -0.2434942627
 C      1.3578439273     -0.7537428806     -0.1612181610
 N     -0.8957262709     -0.7126128243     -1.2674980471
 O     -0.4172397510      1.0224143273      1.8530805761
 H     -0.4039273472     -1.4188840109     -1.8692509682
 H     -0.4777021608     -1.4292377175      0.7390163235
 H     -1.0507582139      1.1904905155     -1.0850410170
 H      1.7021596618     -0.0223466396     -0.8689401883
 H      1.6175375234     -1.7275463363     -0.5899969498
 H      1.8692810829     -0.6320269728      0.7871796365
 H     -1.8070985318     -1.1171220409     -1.0955291279
13
# ORCA AIMD Position Step 4, t=2.00 fs, E_Pot=-317.69573020 Hartree, Unit is Angstrom
 C     -0.1719329482     -0.6339091819      0.0478336102
 C     -0.5308402801      0.7783742154      0.6904572344
 O     -0.9506042188      1.7024279947     -0.2430234921
 C      1.3590768860     -0.7547140890     -0.1590387403
 N     -0.8988671598     -0.7089064714     -1.2685001234
 O     -0.4207092462      1.0263742891      1.8530769517
 H     -0.4046326860     -1.4179658954     -1.8690114642
 H     -0.4733949637     -1.4311121960      0.7382440670
 H     -1.0610715769      1.1947716740     -1.0842637548
 H      1.7041451965     -0.0313652269     -0.8726948127
 H      1.6189769749     -1.7269199734     -0.5947955219
 H      1.8699287292     -0.6350836709      0.7897391224
 H     -1.8047955176     -1.1213246132     -1.0925434480
13
# ORCA AIMD Position Step 5, t=2.50 fs, E_Pot=-317.69477027 Hartree, Unit is Angstrom
 C     -0.1716484855     -0.6317254032      0.0491390260
 C     -0.5331233083      0.7844183406      0.6941053934
 O     -0.9503102105      1.7047668210     -0.2425279938
 C      1.3602601403     -0.7558514756     -0.1569214061
 N     -0.9016872717     -0.7052499026     -1.2695657837
 O     -0.4241727121      1.0304533829      1.8534187311
 H     -0.4065256970     -1.4150902941     -1.8674001041
 H     -0.4694500749     -1.4325486762      0.7373425544
 H     -1.0710812807      1.1983841424     -1.0832576778
 H      1.7066670345     -0.0386307163     -0.8767704866
 H      1.6198410150     -1.7258208719     -0.5984325967
 H      1.8708688477     -0.6380338875      0.7922160957
 H     -1.8054327639     -1.1266490654     -1.0890145938
13
# ORCA AIMD Position Step 6, t=3.00 fs, E_Pot=-317.69410830 Hartree, Unit is Angstrom
 C     -0.1713844089     -0.6294742282      0.0504188453
 C     -0.5354067359      0.7901413390      0.6971230387
 O     -0.9500487186      1.7072296644     -0.2420101506
 C      1.3613877581     -0.7571512025     -0.1548924603
 N     -0.9042013337     -0.7016540895     -1.2706662970
 O     -0.4276257038      1.0346699185      1.8541715428
 H     -0.4095386073     -1.4102890637     -1.8645163600
 H     -0.4659667263     -1.4334709752      0.7363116477
 H     -1.0807095482      1.2012427723     -1.0819156015
 H      1.7097280709     -0.0440092378     -0.8810074108
 H      1.6200546920     -1.7243394377     -0.6007393358
 H      1.8721398573     -0.6408542175      0.7945670489
 H     -1.8087475743     -1.1329416529     -1.0849986976
13
# ORCA AIMD Position Step 7, t=3.50 fs, E_Pot=-317.69363426 Hartree, Unit is Angstrom
 C     -0.1711429460     -0.6271451842      0.0516635227
 C     -0.5376839448      0.7954916343      0.6994367438
 O     -0.9498262530      1.7098303640     -0.2414755139
 C      1.3624578864     -0.7585886531     -0.1529805060
 N     -0.9064664949     -0.6981275165     -1.2717538985
 O     -0.4310654042      1.0390377370      1.8553834129
 H     -0.4134419491     -1.4038273189     -1.8606499438
 H     -0.4630423668     -1.4338245255      0.7351691028
 H     -1.0898856991      1.2033019955     -1.0801244641
 H      1.7132678712     -0.0475232207     -0.8851358582
 H      1.6195808552     -1.7226595131     -0.6016222152
 H      1.8737603553     -0.6435260764      0.7967404965
 H     -1.8140582864     -1.1398458410     -1.0806433260
13
# ORCA AIMD Position Step 8, t=4.00 fs, E_Pot=-317.69320174 Hartree, Unit is Angstrom
 C     -0.1709258649     -0.6247277430      0.0528621545
 C     -0.5399457756      0.8004283509      0.7010065449
 O     -0.9496491571      1.7125795245     -0.2409321671
 C      1.3634719338     -0.7601213986     -0.1512143031
 N     -0.9085702785     -0.6946741466     -1.2727654120
 O     -0.4344908526      1.0435654139      1.8570813812
 H     -0.4178665845     -1.3961731408     -1.8562540767
 H     -0.4607705778     -1.4335767403      0.7339501623
 H     -1.0985479560      1.2045517518     -1.0777797357
 H      1.7171732363     -0.0493306470     -0.8888026168
 H      1.6184190402     -1.7210445151     -0.6010641320
 H      1.8757280884     -0.6460360033      0.7986792568
 H     -1.8204078260     -1.1468611719     -1.0761634807
13
# ORCA AIMD Position Step 9, t=4.50 fs, E_Pot=-317.69274201 Hartree, Unit is Angstrom
 C     -0.1707347408     -0.6222114485      0.0540025503
 C     -0.5421802933      0.8049222386      0.7018287982
 O     -0.9495235009      1.7154846872     -0.2403898729
 C      1.3644333009     -0.7616941465     -0.1496200256
 N     -0.9106148800     -0.6912916533     -1.2736281215
 O     -0.4379030446      1.0482557728      1.8592694529
 H     -0.4223440963     -1.3879408166     -1.8518981398
 H     -0.4592384260     -1.4327154203      0.7327053487
 H     -1.1066457435      1.2050117406     -1.0748006187
 H      1.7212956687     -0.0496906455     -0.8916121549
 H      1.6166011985     -1.7198138709     -0.5991190112
 H      1.8780202963     -0.6483756315      0.8003241334
 H     -1.8267395905     -1.1534248970     -1.0718067931
13
# ORCA AIMD Position Step 10, t=5.00 fs, E_Pot=-317.69231529 Hartree, Unit is Angstrom
 C     -0.1705712127     -0.6195862352      0.0550715718
 C     -0.5443728049      0.8089561367      0.7019367132
 O     -0.9494549578      1.7185505883     -0.2398592040
 C      1.3653459702     -0.7632449966     -0.1482185596
 N     -0.9127009480     -0.6879715357     -1.2742674814
 O     -0.4413049126      1.0531057536      1.8619281690
 H     -0.4263664168     -1.3798061714     -1.8481980997
 H     -0.4585233083     -1.4312454542      0.7314966271
 H     -1.1141413797      1.2047250872     -1.0711437629
 H      1.7254723318     -0.0489224930     -0.8931745827
 H      1.6141843484     -1.7193108848     -0.5959000851
 H      1.8805954120     -0.6505413716      0.8016187685
 H     -1.8320620441     -1.1589948670     -1.0678166683
13
# ORCA AIMD Position Step 11, t=5.50 fs, E_Pot=-317.69207759 Hartree, Unit is Angstrom
 C     -0.1704372298     -0.6168428813      0.0560557298
 C     -0.5465061912      0.8125249628      0.7013981268
 O     -0.9494486046      1.7217793180     -0.2393506363
 C      1.3662131948     -0.7647122280     -0.1470234503
 N     -0.9149129573     -0.6847018055     -1.2746158153
 O     -0.4447011248      1.0581066417      1.8650158638
 H     -0.4294610592     -1.3723992680     -1.8457288616
 H     -0.4586894032     -1.4291838564      0.7303923513
 H     -1.1210121349      1.2037526885     -1.0668129678
 H      1.7295468523     -0.0473646048     -0.8931521233
 H      1.6112410405     -1.7198641101     -0.5915627083
 H      1.8833959286     -0.6525338584      0.8025154043
 H     -1.8355761185     -1.1631189991     -1.0644002645
13
# ORCA AIMD Position Step 12, t=6.00 fs, E_Pot=-317.69218380 Hartree, Unit is Angstrom
 C     -0.1703352176     -0.6139736520      0.0569419050
 C     -0.5485614382      0.8156352403      0.7003112740
 O     -0.9495088130      1.7251704538     -0.2388739019
 C      1.3670364839     -0.7660409996     -0.1460397560
 N     -0.9173073377     -0.6814715327     -1.2746209789
 O     -0.4480977318      1.0632445901      1.8684713762
 H     -0.4312715260     -1.3661902414     -1.8449305932
 H     -0.4597840479     -1.4265538128      0.7294616154
 H     -1.1272513044      1.2021688927     -1.0618637546
 H      1.7333874775     -0.0453377131     -0.8912986188
 H      1.6078487195     -1.7217455604     -0.5862837700
 H      1.8863520537     -0.6543572011      0.8029809761
 H     -1.8367599690     -1.1654855454     -1.0617042671
13
# ORCA AIMD Position Step 13, t=6.50 fs, E_Pot=-317.69267757 Hartree, Unit is Angstrom
 C     -0.1702682283     -0.6109729662      0.0577181696
 C     -0.5505183875      0.8183043383      0.6987987145
 O     -0.9496391234      1.7287210211     -0.2384375223
 C      1.3678148763     -0.7671892914     -0.1452637993
 N     -0.9199041859     -0.6782753153     -1.2742533917
 O     -0.4515017060      1.0685013390      1.8722178672
 H     -0.4316255092     -1.3613943915     -1.8460295131
 H     -0.4618342512     -1.4233786593      0.7287682599
 H     -1.1328681908      1.2000591679     -1.0564018703
 H      1.7369012730     -0.0431149393     -0.8874885668
 H      1.6040794685     -1.7251307219     -0.5802407189
 H      1.8893858060     -0.6560182489      0.8030028549
 H     -1.8354164014     -1.1659553914     -1.0597987419
13
# ORCA AIMD Position Step 14, t=7.00 fs, E_Pot=-317.69343080 Hartree, Unit is Angstrom
 C     -0.1702400493     -0.6078379947      0.0583745788
 C     -0.5523565986      0.8205594802      0.6970001876
 O     -0.9498421792      1.7324253410     -0.2380485950
 C      1.3685444573     -0.7681325235     -0.1446835595
 N     -0.9226833701     -0.6751155394     -1.2735098398
 O     -0.4549204408      1.0738550716      1.8761672999
 H     -0.4305718515     -1.3579241622     -1.8489952064
 H     -0.4648437779     -1.4196766287      0.7283651919
 H     -1.1378864287      1.1975196462     -1.0505760672
 H      1.7400438185     -0.0408996540     -0.8817345789
 H      1.5999918682     -1.7300664003     -0.5735937494
 H      1.8924150709     -0.6575259629      0.8025935466
 H     -1.8316905942     -1.1645785379     -1.0586687658
13
# ORCA AIMD Position Step 15, t=7.50 fs, E_Pot=-317.69417329 Hartree, Unit is Angstrom
 C     -0.1702552680     -0.6045690863      0.0589038226
 C     -0.5540562716      0.8224366436      0.6950650120
 O     -0.9501197053      1.7362747772     -0.2377127798
 C      1.3692180369     -0.7688662782     -0.1442793959
 N     -0.9255856406     -0.6720012058     -1.2724130183
 O     -0.4583612509      1.0792813341      1.8802251267
 H     -0.4283742977     -1.3554040903     -1.8535479837
 H     -0.4687910996     -1.4154570853      0.7282896276
 H     -1.1423411146      1.1946583606     -1.0445658676
 H      1.7428241406     -0.0388116268     -0.8741929959
 H      1.5956266193     -1.7364525101     -0.5664744022
 H      1.8953572037     -0.6588909821      0.8017936942
 H     -1.8260614016     -1.1615956705     -1.0582138706
13
# ORCA AIMD Position Step 16, t=8.00 fs, E_Pot=-317.69460386 Hartree, Unit is Angstrom
 C     -0.1703192711     -0.6011699474      0.0593016992
 C     -0.5555991677      0.8239794241      0.6931446083
 O     -0.9504725294      1.7402574522     -0.2374344154
 C      1.3698249626     -0.7694067029     -0.1440248960
 N     -0.9285188440     -0.6689438212     -1.2710069529
 O     -0.4618309328      1.0847539758      1.8842948034
 H     -0.4254638605     -1.3532438337     -1.8592135383
 H     -0.4736284694     -1.4107188319      0.7285598153
 H     -1.1462749355      1.1915974880     -1.0385659463
 H      1.7453047044     -0.0368821002     -0.8651575958
 H      1.5910066878     -1.7440421929     -0.5589824571
 H      1.8981318931     -0.6601254208      0.8006728479
 H     -1.8193032517     -1.1574224692     -1.0582562618
13
# ORCA AIMD Position Step 17, t=8.50 fs, E_Pot=-317.69452847 Hartree, Unit is Angstrom
 C     -0.1704381515     -0.5976475553      0.0595674136
 C     -0.5569694643      0.8252378883      0.6913855918
 O     -0.9509006288      1.7443580322     -0.2372166751
 C      1.3703511321     -0.7697884065     -0.1438878367
 N     -0.9313688078     -0.6659523421     -1.2693494518
 O     -0.4653354251      1.0902460722      1.8882818558
 H     -0.4223641683     -1.3507463021     -1.8654077908
 H     -0.4792822802     -1.4054507522      0.7291737029
 H     -1.1497337616      1.1884755643     -1.0327692871
 H      1.7475961000     -0.0350588181     -0.8550411945
 H      1.5861416742     -1.7524614539     -0.5511909988
 H      1.9006631192     -0.6612428578      0.7993276884
 H     -1.8124106711     -1.1526116256     -1.0585595428
13
# ORCA AIMD Position Step 18, t=9.00 fs, E_Pot=-317.69395534 Hartree, Unit is Angstrom
 C     -0.1706184989     -0.5940118280      0.0597037271
 C     -0.5581544899      0.8262674034      0.6899237524
 O     -0.9514031855      1.7485576806     -0.2370616705
 C      1.3707793483     -0.7700599707     -0.1438314213
 N     -0.9340140683     -0.6630295634     -1.2675031494
 O     -0.4688795791      1.0957307988      1.8920973271
 H     -0.4196090011     -1.3472221435     -1.8715296902
 H     -0.4856547478     -1.3996347257      0.7301097968
 H     -1.1527622919      1.1854484832     -1.0273514905
 H      1.7498459933     -0.0332221384     -0.8443451573
 H      1.5810351312     -1.7612457242     -0.5431576127
 H      1.9028801740     -0.6622584123      0.7978776628
 H     -1.8064779827     -1.1477878011     -1.0588592484
13
# ORCA AIMD Position Step 19, t=9.50 fs, E_Pot=-317.69309525 Hartree, Unit is Angstrom
 C     -0.1708670753     -0.5902751034      0.0597169815
 C     -0.5591452914      0.8271274221      0.6888790995
 O     -0.9519786267      1.7528342542     -0.2369704220
 C      1.3710901586     -0.7702775227     -0.1438159907
 N     -0.9363431340     -0.6601715042     -1.2655265499
 O     -0.4724670285      1.1011822149      1.8956605214
 H     -0.4176678514     -1.3420882952     -1.8770441956
 H     -0.4926268500     -1.3932504696      0.7313301495
 H     -1.1554003459      1.1826881649     -1.0224584133
 H      1.7522222549     -0.0312126344     -0.8336178768
 H      1.5756930132     -1.7698876783     -0.5349385247
 H      1.9047178185     -0.6631887621      0.7964582784
 H     -1.8025364971     -1.1435563698     -1.0589039525
13
# ORCA AIMD Position Step 20, t=10.00 fs, E_Pot=-317.69225814 Hartree, Unit is Angstrom
 C     -0.1711904008     -0.5864514859      0.0596169988
 C     -0.5599370105      0.8278802063      0.6883520307
 O     -0.9526246308      1.7571627795     -0.2369426542
 C      1.3712632360     -0.7704971015     -0.1438012795
 N     -0.9382720708     -0.6573697188     -1.2634661469
 O     -0.4761001301      1.1065759260      1.8989010475
 H     -0.4168881574     -1.3349397784     -1.8815463904
 H     -0.5000623715     -1.3862817544      0.7327850850
 H     -1.1576802775      1.1803781273     -1.0181986750
 H      1.7548910848     -0.0288687066     -0.8234052287
 H      1.5701314794     -1.7778892071     -0.5266024161
 H      1.9061157508     -0.6640519724      0.7952125557
 H     -1.8013709038     -1.1403981873     -1.0585009680
13
# ORCA AIMD Position Step 21, t=10.50 fs, E_Pot=-317.69169518 Hartree, Unit is Angstrom
 C     -0.1715943039     -0.5825561121      0.0594168406
 C     -0.5605290633      0.8285894881      0.6884205705
 O     -0.9533380927      1.7615162019     -0.2369764173
 C      1.3712791931     -0.7707667621     -0.1437490329
 N     -0.9397590884     -0.6546148831     -1.2613504879
 O     -0.4797799461      1.1118896062      1.9017602340
 H     -0.4174566000     -1.3255932420     -1.8848050621
 H     -0.5078128504     -1.3787233111      0.7344190006
 H     -1.1596257646      1.1787057511     -1.0146416113
 H      1.7579923526     -0.0260698493     -0.8141984780
 H      1.5643827615     -1.7848108064     -0.5182414045
 H      1.9070176397     -0.6648670557      0.7942813363
 H     -1.8033579268     -1.1385754093     -1.0575556582
13
# ORCA AIMD Position Step 22, t=11.00 fs, E_Pot=-317.69147765 Hartree, Unit is Angstrom
 C     -0.1720834979     -0.5786043698      0.0591324072
 C     -0.5609251396      0.8293190782      0.6891385511
 O     -0.9541150529      1.7658663678     -0.2370675819
 C      1.3711215349     -0.7711194879     -0.1436255487
 N     -0.9408124747     -0.6518993475     -1.2591868953
 O     -0.4835062490      1.1171033950      1.9041920425
 H     -0.4193787690     -1.3141049596     -1.8867874318
 H     -0.5157231793     -1.3705876702      0.7361764609
 H     -1.1612519719      1.1778516935     -1.0118202484
 H      1.7616158537     -0.0227782025     -0.8063871364
 H      1.5584984449     -1.7903131858     -0.5099777751
 H      1.9073700443     -0.6656532621      0.7937932746
 H     -1.8083779806     -1.1380782498     -1.0560919526
13
# ORCA AIMD Position Step 23, t=11.50 fs, E_Pot=-317.69148647 Hartree, Unit is Angstrom
 C     -0.1726612349     -0.5746111095      0.0587818874
 C     -0.5611330466      0.8301314329      0.6905345797
 O     -0.9549506129      1.7701851736     -0.2372092940
 C      1.3707783383     -0.7715679656     -0.1434035868
 N     -0.9414895770     -0.6492171027     -1.2569612526
 O     -0.4872775477      1.1222002060      1.9061636207
 H     -0.4224764511     -1.3007656841     -1.8876661632
 H     -0.5236375507     -1.3619111347      0.7380078434
 H     -1.1625668337      1.1779775025     -1.0097380762
 H      1.7657830409     -0.0190693310     -0.8002247173
 H      1.5525500595     -1.7941877186     -0.5019660099
 H      1.9071215874     -0.6664291850      0.7938554221
 H     -1.8158321627     -1.1386319835     -1.0542466523
13
# ORCA AIMD Position Step 24, t=12.00 fs, E_Pot=-317.69151178 Hartree, Unit is Angstrom
 C     -0.1733290629     -0.5705899090      0.0583851136
 C     -0.5611644199      0.8310861939      0.6926116599
 O     -0.9558388716      1.7744458047     -0.2373914921
 C      1.3702432527     -0.7721020608     -0.1430632033
 N     -0.9418871974     -0.6465613699     -1.2546408315
 O     -0.4910911430      1.1271659944      1.9076556212
 H     -0.4264034410     -1.2860722385     -1.8878069094
 H     -0.5314053430     -1.3527581110      0.7398739702
 H     -1.1635730164      1.1792128828     -1.0083779834
 H      1.7704383524     -0.0151441785     -0.7958134134
 H      1.5466271858     -1.7963737575     -0.4943902543
 H      1.9062227472     -0.6672118283      0.7945453449
 H     -1.8247586617     -1.1397610560     -1.0522396751
13
# ORCA AIMD Position Step 25, t=12.50 fs, E_Pot=-317.69139225 Hartree, Unit is Angstrom
 C     -0.1740866936     -0.5665524675      0.0579629210
 C     -0.5610343280      0.8322387370      0.6953473555
 O     -0.9567729114      1.7786239577     -0.2376005825
 C      1.3695155836     -0.7726894303     -0.1425913782
 N     -0.9421261412     -0.6439216047     -1.2521798168
 O     -0.4949432199      1.1319900176      1.9086623737
 H     -0.4306824220     -1.2706736648     -1.8877316018
 H     -0.5388864775     -1.3432231179      0.7417493685
 H     -1.1642700151      1.1816442280     -1.0077116881
 H      1.7754523536     -0.0113181715     -0.7931096924
 H      1.5408333623     -1.7969616038     -0.4874575737
 H      1.9046265618     -0.6680157932      0.7959056725
 H     -1.8340084377     -1.1408870281     -1.0503305326
13
# ORCA AIMD Position Step 26, t=13.00 fs, E_Pot=-317.69111103 Hartree, Unit is Angstrom
 C     -0.1749320135     -0.5625081853      0.0575366320
 C     -0.5607607844      0.8336388377      0.6986943152
 O     -0.9577448263      1.7826988337     -0.2378192901
 C      1.3685994543     -0.7732791758     -0.1419806855
 N     -0.9423334112     -0.6412820803     -1.2495270610
 O     -0.4988289773      1.1366650949      1.9091919412
 H     -0.4347651878     -1.2552905221     -1.8880522975
 H     -0.5459557246     -1.3334299783      0.7436239002
 H     -1.1646560124      1.1853062340     -1.0077081472
 H      1.7806361543     -0.0079892521     -0.7919480726
 H      1.5352800689     -1.7961803085     -0.4813873723
 H      1.9022903982     -0.6688527230      0.7979417416
 H     -1.8424298033     -1.1414312035     -1.0487734895
13
# ORCA AIMD Position Step 27, t=13.50 fs, E_Pot=-317.69080119 Hartree, Unit is Angstrom
 C     -0.1758610949     -0.5584640971      0.0571277150
 C     -0.5603641426      0.8353293222      0.7025815796
 O     -0.9587458882      1.7866540560     -0.2380269267
 C      1.3675022962     -0.7738079800     -0.1412274807
 N     -0.9426250016     -0.6386233100     -1.2466355211
 O     -0.5027428169      1.1411878262      1.9092659571
 H     -0.4381138436     -1.2406107014     -1.8893758499
 H     -0.5525055191     -1.3235282204      0.7455026962
 H     -1.1647291398      1.1901772143     -1.0083393578
 H      1.7857638996     -0.0055910247     -0.7920772852
 H      1.5300794271     -1.7943704963     -0.4763977059
 H      1.8991789450     -0.6697310150      0.8006225932
 H     -1.8490243743     -1.1409007816     -1.0477802455
13
# ORCA AIMD Position Step 28, t=14.00 fs, E_Pot=-317.69066214 Hartree, Unit is Angstrom
 C     -0.1768683511     -0.5544250712      0.0567576693
 C     -0.5598665120      0.8373449636      0.7069160802
 O     -0.9597667618      1.7904781417     -0.2381999023
 C      1.3662330556     -0.7742079339     -0.1403302527
 N     -0.9430909912     -0.6359257341     -1.2434724351
 O     -0.5066784982      1.1455587566      1.9089193923
 H     -0.4402930009     -1.2271780411     -1.8921886503
 H     -0.5584472178     -1.3136867106      0.7474043899
 H     -1.1644877606      1.1961792904     -1.0095831785
 H      1.7905991515     -0.0045403650     -0.7932010035
 H      1.5253355030     -1.7919427700     -0.4726885896
 H      1.8952680369     -0.6706557723      0.8038854034
 H     -1.8530602129     -1.1389501673     -1.0474936544
13
# ORCA AIMD Position Step 29, t=14.50 fs, E_Pot=-317.69083249 Hartree, Unit is Angstrom
 C     -0.1779467524     -0.5503942414      0.0564481186
 C     -0.5592911460      0.8397116041      0.7115846093
 O     -0.9607977938      1.7941645626     -0.2383125205
 C      1.3648004304     -0.7744150308     -0.1392885074
 N     -0.9437843438     -0.6331739389     -1.2400283580
 O     -0.5106293080      1.1497824207      1.9082000037
 H     -0.4410530390     -1.2152973738     -1.8967466431
 H     -0.5637106943     -1.3040851290      0.7493575218
 H     -1.1639298487      1.2031837844     -1.0114222658
 H      1.7949208168     -0.0051878802     -0.7950169964
 H      1.5211351860     -1.7893251653     -0.4704236004
 H      1.8905491038     -0.6716289271      0.8076425302
 H     -1.8541426591     -1.1354185239     -1.0479725872
13
# ORCA AIMD Position Step 30, t=15.00 fs, E_Pot=-317.69129111 Hartree, Unit is Angstrom
 C     -0.1790881161     -0.5463736320      0.0562209569
 C     -0.5586618336      0.8424455333      0.7164564296
 O     -0.9618293851      1.7977114840     -0.2383381057
 C      1.3632114268     -0.7743773843     -0.1381023487
 N     -0.9447145282     -0.6303590755     -1.2363228556
 O     -0.5145882225      1.1538672424      1.9071674481
 H     -0.4403807453     -1.2049840503     -1.9030022301
 H     -0.5682427376     -1.2949039565      0.7513955298
 H     -1.1630513732      1.2110209743     -1.0138393374
 H      1.7985456438     -0.0077770419     -0.7972505451
 H      1.5175392434     -1.7869054780     -0.4697111705
 H      1.8850336450     -0.6726493823      0.8117903197
 H     -1.8522508918     -1.1303480962     -1.0491862595
13
# ORCA AIMD Position Step 31, t=15.50 fs, E_Pot=-317.69184672 Hartree, Unit is Angstrom
 C     -0.1802835122     -0.5423648305      0.0560984305
 C     -0.5580022974      0.8455532289      0.7213864937
 O     -0.9628523833      1.8011211617     -0.2382503442
 C      1.3614703379     -0.7740621939     -0.1367726436
 N     -0.9458467661     -0.6274780437     -1.2324050010
 O     -0.5185480716      1.1578252875      1.9058919891
 H     -0.4385005348     -1.1959748966     -1.9105935807
 H     -0.5720047062     -1.2863137386      0.7535507860
 H     -1.1618441835      1.2194934691     -1.0168093941
 H      1.8013456140     -0.0124153530     -0.7996800189
 H      1.5145745112     -1.7849769204     -0.4705877260
 H      1.8787570838     -0.6737130794      0.8162185533
 H     -1.8477453732     -1.1239864388     -1.0510169411
13
# ORCA AIMD Position Step 32, t=16.00 fs, E_Pot=-317.69222551 Hartree, Unit is Angstrom
 C     -0.1815237228     -0.5383696186      0.0561030936
 C     -0.5573356117      0.8490315180      0.7262194502
 O     -0.9638584742      1.8043991269     -0.2380247347
 C      1.3595781387     -0.7734605153     -0.1353014882
 N     -0.9471071085     -0.6245297903     -1.2283482889
 O     -0.5225017217      1.1616718392      1.9044526483
 H     -0.4358257372     -1.1877962543     -1.9189013843
 H     -0.5749699236     -1.2784645652      0.7558483813
 H     -1.1602938232      1.2283916696     -1.0202902596
 H      1.8032593978     -0.0190587846     -0.8021539857
 H      1.5122284799     -1.7836969917     -0.4730054338
 H      1.8717814670     -0.6748129725      0.8208193903
 H     -1.8413440841     -1.1167717466     -1.0532709833
13
# ORCA AIMD Position Step 33, t=16.50 fs, E_Pot=-317.69221027 Hartree, Unit is Angstrom
 C     -0.1827996827     -0.5343905035      0.0562576233
 C     -0.5566836493      0.8528682062      0.7307945626
 O     -0.9648405372      1.8075533065     -0.2376400101
 C      1.3575322657     -0.7725890850     -0.1336926729
 N     -0.9483928829     -0.6215106770     -1.2242412724
 O     -0.5264422826      1.1654247778      1.9029346930
 H     -0.4328760518     -1.1798661436     -1.9271547156
 H     -0.5771212897     -1.2714766825      0.7583005674
 H     -1.1583778157      1.2375093126     -1.0242134218
 H      1.8042974733     -0.0275097509     -0.8045996784
 H      1.5104473079     -1.7830680657     -0.4768271629
 H      1.8641965490     -0.6759389567      0.8254948377
 H     -1.8340582820     -1.1092965079     -1.0556989001
13
# ORCA AIMD Position Step 34, t=17.00 fs, E_Pot=-317.69175852 Hartree, Unit is Angstrom
 C     -0.1841028225     -0.5304311239      0.0565845234
 C     -0.5560665712      0.8570431927      0.7349515471
 O     -0.9657929208      1.8105932123     -0.2370793630
 C      1.3553267754     -0.7714888258     -0.1319519652
 N     -0.9495877203     -0.6184114056     -1.2201761681
 O     -0.5303633258      1.1691037536      1.9014264167
 H     -0.4301845450     -1.1716016956     -1.9345554783
 H     -0.5784494964     -1.2654330992      0.7609027794
 H     -1.1560649824      1.2466569777     -1.0284774361
 H      1.8045404948     -0.0374285799     -0.8070224601
 H      1.5091377967     -1.7829439676     -0.4818303323
 H      1.8561189847     -0.6770778449      0.8301620450
 H     -1.8270759367     -1.1022432455     -1.0580250077
13
# ORCA AIMD Position Step 35, t=17.50 fs, E_Pot=-317.69103571 Hartree, Unit is Angstrom
 C     -0.1854252563     -0.5264965218      0.0571057489
 C     -0.5555023810      0.8615300287      0.7385371948
 O     -0.9667116015      1.8135293055     -0.2363313234
 C      1.3529529363     -0.7702201787     -0.1300872173
 N     -0.9505800577     -0.6152172199     -1.2162376037
 O     -0.5342590856      1.1727291514      1.9000152668
 H     -0.4282138997     -1.1625099948     -1.9403938657
 H     -0.5789521535     -1.2603749078      0.7636319806
 H     -1.1533162195      1.2556717307     -1.0329459349
 H      1.8041304206     -0.0483581733     -0.8094956309
 H      1.5081731652     -1.7830609300     -0.4877197508
 H      1.8476895843     -0.6782134956      0.8347560411
 H     -1.8215887806     -1.0962901375     -1.0599851454
13