24
# ORCA AIMD Position Step 0, t=0.00 fs, E_Pot=-667.73605601 Hartree, Unit is Angstrom
 H     -3.3481602922     -1.1070901267      0.5329282198
 N      0.9576731599     -1.0531208097     -0.8118565258
 C      0.0691141620      0.8527595720      0.3889810661
 N     -1.3561456599     -1.0238718207     -0.0642068319
 C     -1.2841790207      0.2793169621      0.5420946795
 C     -0.2987994183     -1.7270183687     -0.7413322205
 C      1.0925427306      0.2250283240     -0.2387381352
 N      0.5858597897      2.0831234972      0.8192948802
 O     -0.4800753363     -2.8350272322     -1.2207582989
 C     -2.6430707036     -1.7396726006     -0.0019266602
 O     -2.2478719191      0.7908957753      1.0963140783
 H      2.5489884780      2.9385599038      0.6090446824
 C      2.0884630756     -1.7030662211     -1.4897410451
 H     -2.5345582082     -2.6886206422      0.5248292235
 H     -3.0244781393     -1.9417870839     -1.0036902987
 H      2.9270377000     -1.8314615303     -0.8036539472
 H      2.4222189708     -1.1093261327     -2.3422910624
 H      1.7492877877     -2.6776344068     -1.8364065121
 C     -0.1358712033      3.1379918321      1.5553050386
 C      1.8996237032      2.0934057646      0.4071296908
 N      2.2646558834      0.9919362153     -0.2405270639
 H     -0.1543905288      4.0614529050      0.9743274860
 H      0.3465590761      3.3282302552      2.5152923657
 H     -1.1554240861      2.7930959784      1.7223871952
24
# ORCA AIMD Position Step 1, t=0.50 fs, E_Pot=-667.73545387 Hartree, Unit is Angstrom
 H     -3.3394939650     -1.1072935997      0.5375323856
 N      0.9566400732     -1.0477209895     -0.8066647775
 C      0.0717735223      0.8526982645      0.3888526339
 N     -1.3529678581     -1.0271178068     -0.0622415329
 C     -1.2873791292      0.2816369377      0.5402239640
 C     -0.3017590629     -1.7245737375     -0.7428674360
 C      1.0933827214      0.2231651485     -0.2402231234
 N      0.5876814502      2.0814971833      0.8185798558
 O     -0.4833754713     -2.8340010380     -1.2211145986
 C     -2.6424834612     -1.7449300347     -0.0035409530
 O     -2.2469689557      0.7900594097      1.0936471916
 H      2.5509823851      2.9317953042      0.6117029643
 C      2.0917029971     -1.7045809702     -1.4895743880
 H     -2.5471444390     -2.6896352778      0.5198843929
 H     -3.0243294477     -1.9434798326     -0.9954225288
 H      2.9323810187     -1.8373579412     -0.8047933204
 H      2.4241341579     -1.1120160600     -2.3412129894
 H      1.7460187099     -2.6703618525     -1.8502607250
 C     -0.1370219626      3.1429648750      1.5583275429
 C      1.9005676333      2.0928771397      0.4057700769
 N      2.2609266501      0.9897023157     -0.2421415399
 H     -0.1627730171      4.0596964824      0.9749193847
 H      0.3486335231      3.3354785029      2.5133702935
 H     -1.1501280713      2.7995975865      1.7300472307
24
# ORCA AIMD Position Step 2, t=1.00 fs, E_Pot=-667.73376980 Hartree, Unit is Angstrom
 H     -3.3308958363     -1.1075917728      0.5419789835
 N      0.9556462418     -1.0424508756     -0.8015525577
 C      0.0743714042      0.8526218646      0.3887279580
 N     -1.3498455636     -1.0303548247     -0.0602625357
 C     -1.2904616496      0.2839084799      0.5383142897
 C     -0.3046748297     -1.7221457328     -0.7444030927
 C      1.0941956599      0.2213753014     -0.2416642111
 N      0.5894773179      2.0799297463      0.8178992357
 O     -0.4866631044     -2.8329621957     -1.2214726854
 C     -2.6418724214     -1.7500862553     -0.0050822814
 O     -2.2461216177      0.7892501423      1.0910083078
 H      2.5531973313      2.9253501291      0.6143873108
 C      2.0948918381     -1.7060554013     -1.4893816244
 H     -2.5594204918     -2.6912437832      0.5153092924
 H     -3.0245253794     -1.9452522881     -0.9881665681
 H      2.9375276001     -1.8433028869     -0.8060034131
 H      2.4261425322     -1.1144504646     -2.3401869334
 H      1.7427201167     -2.6633103687     -1.8639049967
 C     -0.1381078200      3.1478681642      1.5613075096
 C      1.9014867355      2.0923128977      0.4044074121
 N      2.2572433194      0.9874831101     -0.2437593903
 H     -0.1710681079      4.0583289288      0.9752639773
 H      0.3508562580      3.3427770823      2.5116489537
 H     -1.1454241172      2.8058099664      1.7378031710
24
# ORCA AIMD Position Step 3, t=1.50 fs, E_Pot=-667.73133453 Hartree, Unit is Angstrom
 H     -3.3224359599     -1.1080708136      0.5461230977
 N      0.9547266642     -1.0374345049     -0.7965932678
 C      0.0768504007      0.8525162191      0.3886107405
 N     -1.3468304792     -1.0335762312     -0.0582541422
 C     -1.2933149921      0.2860860079      0.5363252894
 C     -0.3075054345     -1.7197491100     -0.7459424146
 C      1.0949564279      0.2197309570     -0.2430188864
 N      0.5912244098      2.0784759440      0.8172851332
 O     -0.4899288679     -2.8318978876     -1.2218345690
 C     -2.6412135100     -1.7550534408     -0.0064831847
 O     -2.2453840891      0.7884940996      1.0884233175
 H      2.5558305827      2.9194970503      0.6171193886
 C      2.0979831993     -1.7074548418     -1.4891408044
 H     -2.5711118307     -2.6939770788      0.5114306151
 H     -3.0253848819     -1.9471668036     -0.9828452808
 H      2.9422991771     -1.8493458624     -0.8073461757
 H      2.4283339776     -1.1163917506     -2.3392490824
 H      1.7393725674     -2.6566565706     -1.8771374573
 C     -0.1390705374      3.1526416560      1.5642075470
 C      1.9023594308      2.0916809297      0.4030383492
 N      2.2536483764      0.9852917456     -0.2453854366
 H     -0.1792017735      4.0576907343      0.9751396600
 H      0.3533658294      3.3501794898      2.5103001487
 H     -1.1418362151      2.8114701393      1.7457531128
24
# ORCA AIMD Position Step 4, t=2.00 fs, E_Pot=-667.72857704 Hartree, Unit is Angstrom
 H     -3.3142001860     -1.1087996044      0.5498405542
 N      0.9539126731     -1.0327917615     -0.7918569980
 C      0.0791559924      0.8523693543      0.3885048715
 N     -1.3439719718     -1.0367745985     -0.0562009194
 C     -1.2958347189      0.2881261303      0.5342195959
 C     -0.3102106147     -1.7173990637     -0.7474890918
 C      1.0956408042      0.2183019054     -0.2442463306
 N      0.5929013369      2.0771864088      0.8167672344
 O     -0.4931637937     -2.8307961053     -1.2222025111
 C     -2.6404865675     -1.7597622486     -0.0076891291
 O     -2.2448074777      0.7878159069      1.0859165718
 H      2.5590241575      2.9144341795      0.6199061261
 C      2.1009325024     -1.7087493105     -1.4888371624
 H     -2.5819786286     -2.6982242023      0.5084916843
 H     -3.0271472805     -1.9492463164     -0.9801636688
 H      2.9465457187     -1.8555334120     -0.8088620359
 H      2.4307849368     -1.1176341333     -2.3384049186
 H      1.7359740237     -2.6505243447     -1.8897530887
 C     -0.1398633256      3.1572333609      1.5669939689
 C      1.9031692467      2.0909565084      0.4016610802
 N      2.2501836708      0.9831415412     -0.2470243410
 H     -0.1871060254      4.0580308790      0.9743796304
 H      0.3562761093      3.3577300162      2.5094459238
 H     -1.1397489370      2.8163642269      1.7539755945
24
# ORCA AIMD Position Step 5, t=2.50 fs, E_Pot=-667.72587540 Hartree, Unit is Angstrom
 H     -3.3062957508     -1.1098211379      0.5530385824
 N      0.9532316940     -1.0286352174     -0.7874088384
 C      0.0812377206      0.8521723537      0.3884145661
 N     -1.3413157843     -1.0399416491     -0.0540880610
 C     -1.2979281670      0.2899893313      0.5319650160
 C     -0.3127519140     -1.7151110746     -0.7490470577
 C      1.0962257760      0.2171524700     -0.2453089748
 N      0.5944884320      2.0761065407      0.8163722614
 O     -0.4963594421     -2.8296459295     -1.2225791160
 C     -2.6396788901     -1.7641695012     -0.0086660694
 O     -2.2444372322      0.7872374746      1.0835094330
 H      2.5628429580      2.9102594987      0.6227321158
 C      2.1036971122     -1.7099133585     -1.4884648547
 H     -2.5918199281     -2.7041717203      0.5066169564
 H     -3.0299251699     -1.9514588314     -0.9804948973
 H      2.9501547391     -1.8619086246     -0.8105625598
 H      2.4335516480     -1.1180178687     -2.3376180908
 H      1.7325422574     -2.6449792252     -1.9015469988
 C     -0.1404553939      3.1616013086      1.5696378325
 C      1.9039068181      2.0901249009      0.4002761295
 N      2.2468898209      0.9810459058     -0.2486804805
 H     -0.1947177623      4.0594729785      0.9728955206
 H      0.3596652720      3.3654583959      2.5091409486
 H     -1.1393473721      2.8203504500      1.7625155486
24
# ORCA AIMD Position Step 6, t=3.00 fs, E_Pot=-667.72344665 Hartree, Unit is Angstrom
 H     -3.2988524486     -1.1111482440      0.5556624697
 N      0.9527071980     -1.0250670356     -0.7833073176
 C      0.0830502182      0.8519201380      0.3883444907
 N     -1.3389028731     -1.0430682571     -0.0519017795
 C     -1.2995187980      0.2916415505      0.5295366253
 C     -0.3150934355     -1.7129007191     -0.7506202037
 C      1.0966897993      0.2163383889     -0.2461740375
 N      0.5959678321      2.0752756173      0.8161235420
 O     -0.4995080011     -2.8284377906     -1.2229674155
 C     -2.6387878417     -1.7682620252     -0.0094048311
 O     -2.2443106633      0.7867768430      1.0812188746
 H      2.5672635870      2.9069595668      0.6255551992
 C      2.1062366701     -1.7109255170     -1.4880275388
 H     -2.6004730555     -2.7117725359      0.5057938533
 H     -3.0336760510     -1.9537120591     -0.9838173057
 H      2.9530561546     -1.8685104608     -0.8124268394
 H      2.4366656792     -1.1174388903     -2.3368053086
 H      1.7291143481     -2.6400305832     -1.9123201822
 C     -0.1408343244      3.1657145829      1.5721156975
 C      1.9045709016      2.0891826704      0.3988868590
 N      2.2438056355      0.9790182887     -0.2503577981
 H     -0.2019772571      4.0619980275      0.9706908754
 H      0.3635683552      3.3733757611      2.5093626589
 H     -1.1405853686      2.8233725533      1.7713742392
24
# ORCA AIMD Position Step 7, t=3.50 fs, E_Pot=-667.72133204 Hartree, Unit is Angstrom
 H     -3.2920189937     -1.1127645040      0.5576972094
 N      0.9523587947     -1.0221760581     -0.7796030158
 C      0.0845540980      0.8516121103      0.3882998634
 N     -1.3367684126     -1.0461445301     -0.0496297139
 C     -1.3005499827      0.2930555133      0.5269186047
 C     -0.3172025490     -1.7107834370     -0.7522120501
 C      1.0970130189      0.2159038498     -0.2468149542
 N      0.5973235269      2.0747261222      0.8160406825
 O     -0.5026023615     -2.8271637027     -1.2233709421
 C     -2.6378216638     -1.7720556982     -0.0099209869
 O     -2.2444547805      0.7864471882      1.0790562525
 H      2.5721761319      2.9044146796      0.6283063388
 C      2.1085136675     -1.7117675526     -1.4875376929
 H     -2.6078098552     -2.7207516465      0.5058763305
 H     -3.0382016061     -1.9558608103     -0.9897216042
 H      2.9552223272     -1.8753728017     -0.8144018956
 H      2.4401322993     -1.1158527364     -2.3358383967
 H      1.7257432874     -2.6356406449     -1.9218876912
 C     -0.1410056708      3.1695533774      1.5744100455
 C      1.9051682147      2.0881374639      0.3974995788
 N      2.2409675493      0.9770721622     -0.2520596297
 H     -0.2088270194      4.0654470542      0.9678615979
 H      0.3679745300      3.3814724491      2.5100106399
 H     -1.1431896998      2.8254606796      1.7805055440
24
# ORCA AIMD Position Step 8, t=4.00 fs, E_Pot=-667.71947367 Hartree, Unit is Angstrom
 H     -3.2859548821     -1.1146303459      0.5591639603
 N      0.9522024021     -1.0200352202     -0.7763373936
 C      0.0857166968      0.8512526342      0.3882865150
 N     -1.3349409895     -1.0491599701     -0.0472613290
 C     -1.3009879305      0.2942116803      0.5241056424
 C     -0.3190505419     -1.7087742642     -0.7538253915
 C      1.0971774716      0.2158788923     -0.2472126097
 N      0.5985413983      2.0744832864      0.8161393340
 O     -0.5056361757     -2.8258174662     -1.2237937924
 C     -2.6367982470     -1.7755899951     -0.0102503331
 O     -2.2448846506      0.7862560885      1.0770263643
 H      2.5773985651      2.9024193076      0.6308939847
 C      2.1104942494     -1.7124237463     -1.4870147680
 H     -2.6137318926     -2.7306471173      0.5066089621
 H     -3.0431749453     -1.9577256461     -0.9974856590
 H      2.9566634386     -1.8825231342     -0.8164069586
 H      2.4439317854     -1.1132725154     -2.3345534358
 H      1.7224922010     -2.6317383932     -1.9300885765
 C     -0.1409898757      3.1731081465      1.5765093132
 C      1.9057121378      2.0870063775      0.3961232412
 N      2.2384090617      0.9752210194     -0.2537885178
 H     -0.2152117026      4.0695429265      0.9645831888
 H      0.3728295216      3.3897179787      2.5109153782
 H     -1.1466990632      2.8267197811      1.7898194927
24
# ORCA AIMD Position Step 9, t=4.50 fs, E_Pot=-667.71782425 Hartree, Unit is Angstrom
 H     -3.2808187187     -1.1166934499      0.5601119845
 N      0.9522504380     -1.0186994405     -0.7735418890
 C      0.0865126704      0.8508513173      0.3883108972
 N     -1.3334419950     -1.0521036989     -0.0447882791
 C     -1.3008235103      0.2950987170      0.5211037509
 C     -0.3206132090     -1.7068875341     -0.7554619294
 C      1.0971672979      0.2162773961     -0.2473562806
 N      0.5996092720      2.0745648314      0.8164310421
 O     -0.5086039054     -2.8243948361     -1.2242406794
 C     -2.6357423590     -1.7789194208     -0.0104414331
 O     -2.2456024496      0.7862051324      1.0751268977
 H      2.5827009113      2.9007136865      0.6332121795
 C      2.1121491971     -1.7128803729     -1.4864824362
 H     -2.6181664179     -2.7408760879      0.5076652848
 H     -3.0481874997     -1.9591177793     -1.0061939258
 H      2.9574188144     -1.8899808155     -0.8183410783
 H      2.4480233268     -1.1097615357     -2.3327657210
 H      1.7194270671     -2.6282359263     -1.9367965263
 C     -0.1408172516      3.1763780193      1.5784075305
 C      1.9062205195      2.0858132661      0.3947687887
 N      2.2361601831      0.9734783607     -0.2555460281
 H     -0.2210794161      4.0739267628      0.9610873561
 H      0.3780428242      3.3980632068      2.5118551108
 H     -1.1505285545      2.8273086303      1.7991922197
24
# ORCA AIMD Position Step 10, t=5.00 fs, E_Pot=-667.71642202 Hartree, Unit is Angstrom
 H     -3.2767545053     -1.1189018560      0.5606074726
 N      0.9525119905     -1.0182041216     -0.7712373239
 C      0.0869244245      0.8504230810      0.3883800317
 N     -1.3322852120     -1.0549647235     -0.0422047145
 C     -1.3000728020      0.2957134461      0.5179304120
 C     -0.3218713718     -1.7051365676     -0.7571219151
 C      1.0969689936      0.2170958404     -0.2472442151
 N      0.6005170025      2.0749809073      0.8169231733
 O     -0.5115008614     -2.8228936554     -1.2247169760
 C     -2.6346822309     -1.7821037278     -0.0105472643
 O     -2.2465973150      0.7862899168      1.0733483354
 H      2.5878347803      2.8990208187      0.6351509686
 C      2.1134550038     -1.7131254919     -1.4859653202
 H     -2.6210639276     -2.7508114918      0.5086917989
 H     -3.0528030399     -1.9598641423     -1.0148701788
 H      2.9575452728     -1.8977549270     -0.8200931453
 H      2.4523508454     -1.1054219138     -2.3302883666
 H      1.7166089894     -2.6250448629     -1.9419299234
 C     -0.1405221315      3.1793687120      1.5801035982
 C      1.9067129639      2.0845855071      0.3934482890
 N      2.2342468973      0.9718576392     -0.2573325881
 H     -0.2263843852      4.0782021553      0.9576323846
 H      0.3834986555      3.4064443691      2.5125783906
 H     -1.1540458219      2.8274141420      1.8084801659
24
# ORCA AIMD Position Step 11, t=5.50 fs, E_Pot=-667.71539671 Hartree, Unit is Angstrom
 H     -3.2738777687     -1.1212176646      0.5607211961
 N      0.9529929288     -1.0185643712     -0.7694336516
 C      0.0869423830      0.8499879902      0.3885013859
 N     -1.3314765928     -1.0577322107     -0.0395075051
 C     -1.2987763394      0.2960602914      0.5146140265
 C     -0.3228113020     -1.7035333703     -0.7588038275
 C      1.0965717083      0.2183129748     -0.2468837940
 N      0.6012565874      2.0757342182      0.8176189182
 O     -0.5143232329     -2.8213139491     -1.2252287450
 C     -2.6336463325     -1.7851986504     -0.0106176851
 O     -2.2478460235      0.7865004380      1.0716743354
 H      2.5925635976      2.8970831793      0.6366074477
 C      2.1143949268     -1.7131490847     -1.4854856442
 H     -2.6223972236     -2.7598561408      0.5093497858
 H     -3.0566077248     -1.9598279336     -1.0225972507
 H      2.9571039626     -1.9058418320     -0.8215531214
 H      2.4568498830     -1.1003808688     -2.3269519601
 H      1.7140870690     -2.6220907294     -1.9454601079
 C     -0.1401372406      3.1820902126      1.5816002893
 C      1.9072080284      2.0833507203      0.3921739958
 N      2.2326906540      0.9703721560     -0.2591473564
 H     -0.2310905711      4.0819802397      0.9544720504
 H      0.3890691881      3.4147884911      2.5128294172
 H     -1.1566455821      2.8272256358      1.8175359485
24
# ORCA AIMD Position Step 12, t=6.00 fs, E_Pot=-667.71491512 Hartree, Unit is Angstrom
 H     -3.2722635455     -1.1236290560      0.5605171230
 N      0.9536959229     -1.0197750087     -0.7681300540
 C      0.0865651086      0.8495708359      0.3886826741
 N     -1.3310142293     -1.0603957250     -0.0366963667
 C     -1.2969971379      0.2961502748      0.5111927286
 C     -0.3234250157     -1.7020883676     -0.7605041097
 C      1.0959675709      0.2198904715     -0.2462912419
 N      0.6018222916      2.0768203086      0.8185173703
 O     -0.5170680993     -2.8196579740     -1.2257827517
 C     -2.6326607942     -1.7882483129     -0.0106936627
 O     -2.2493144184      0.7868218305      1.0700825497
 H      2.5966896582      2.8946946228      0.6374959312
 C      2.1149598763     -1.7129435127     -1.4850602351
 H     -2.6221613194     -2.7675051383      0.5093498229
 H     -3.0592497729     -1.9589224998     -1.0286096463
 H      2.9561474710     -1.9142226689     -0.8226230467
 H      2.4614547122     -1.0947764448     -2.3226227990
 H      1.7118927756     -2.6193237902     -1.9474168632
 C     -0.1396890235      3.1845544998      1.5829030836
 C      1.9077207081      2.0821338468      0.3909574552
 N      2.2315079076      0.9690349073     -0.2609881270
 H     -0.2351756792      4.0849200560      0.9518271094
 H      0.3946284586      3.4230195393      2.5123731691
 H     -1.1578130422      2.8269123959      1.8262236819
24
# ORCA AIMD Position Step 13, t=6.50 fs, E_Pot=-667.71510083 Hartree, Unit is Angstrom
 H     -3.2719380644     -1.1261585565      0.5600439621
 N      0.9546203626     -1.0218113349     -0.7673153716
 C      0.0857992723      0.8492004787      0.3889315867
 N     -1.3308885156     -1.0629454045     -0.0337738911
 C     -1.2948177126      0.2959996961      0.5077127061
 C     -0.3237104257     -1.7008101975     -0.7622169748
 C      1.0951520299      0.2217745250     -0.2454909067
 N      0.6022107705      2.0782279848      0.8196136709
 O     -0.5197334214     -2.8179302258     -1.2263864607
 C     -2.6317475435     -1.7912798483     -0.0108034672
 O     -2.2509594276      0.7872353656      1.0685457878
 H      2.6000753716      2.8917246487      0.6377561348
 C      2.1151490011     -1.7125042315     -1.4846982338
 H     -2.6203734527     -2.7733925322      0.5084768955
 H     -3.0604671140     -1.9571186055     -1.0323564291
 H      2.9547090830     -1.9228611007     -0.8232263635
 H      2.4661049301     -1.0887442065     -2.3172177177
 H      1.7100365008     -2.6167253395     -1.9478904349
 C     -0.1391942643      3.1867735134      1.5840189595
 C      1.9082604583      2.0809548590      0.3898087553
 N      2.2307097120      0.9678583753     -0.2628512731
 H     -0.2386349644      4.0867607504      0.9498620322
 H      0.4000655061      3.4310646615      2.5110178314
 H     -1.1571715584      2.8266062561      1.8344322724
24
# ORCA AIMD Position Step 14, t=7.00 fs, E_Pot=-667.71596464 Hartree, Unit is Angstrom
 H     -3.2728754665     -1.1288660475      0.5593310555
 N      0.9557621830     -1.0246305653     -0.7669688127
 C      0.0846594634      0.8489089696      0.3892554559
 N     -1.3310824906     -1.0653720659     -0.0307454855
 C     -1.2923363563      0.2956286572      0.5042261953
 C     -0.3236713525     -1.6997055686     -0.7639342877
 C      1.0941241838      0.2238982654     -0.2445141675
 N      0.6024211820      2.0799398385      0.8208992113
 O     -0.5223180117     -2.8161374048     -1.2270480138
 C     -2.6309229832     -1.7943003069     -0.0109605965
 O     -2.2527314677      0.7877196015      1.0670334062
 H      2.6026572302      2.8881336216      0.6373587140
 C      2.1149698504     -1.7118306700     -1.4843997754
 H     -2.6170726477     -2.7773217464      0.5066061418
 H     -3.0601043570     -1.9544462954     -1.0335385518
 H      2.9527958433     -1.9317017391     -0.8233143000
 H      2.4707509595     -1.0824061193     -2.3107141298
 H      1.7085067127     -2.6143089479     -1.9470297280
 C     -0.1386580379      3.1887575374      1.5849552539
 C      1.9088299003      2.0798272485      0.3887359814
 N      2.2303013828      0.9668542602     -0.2647317343
 H     -0.2414843497      4.0873440799      0.9486683248
 H      0.4052956141      3.4388599478      2.5086327035
 H     -1.1545136060      2.8263896382      1.8420859482
24
# ORCA AIMD Position Step 15, t=7.50 fs, E_Pot=-667.71737185 Hartree, Unit is Angstrom
 H     -3.2750001546     -1.1318458782      0.5583892177
 N      0.9571136233     -1.0281737862     -0.7670608765
 C      0.0831678351      0.8487304776      0.3896608729
 N     -1.3315723496     -1.0676672416     -0.0276192207
 C     -1.2896629655      0.2950595914      0.5007893251
 C     -0.3233173993     -1.6987791927     -0.7656455380
 C      1.0928870592      0.2261847898     -0.2433980548
 N      0.6024552779      2.0819328418      0.8223618788
 O     -0.5248214870     -2.8142883374     -1.2277761890
 C     -2.6301970045     -1.7972957058     -0.0111630700
 O     -2.2545770168      0.7882515730      1.0655127913
 H      2.6044518231      2.8839784543      0.6363078093
 C      2.1144380437     -1.7109271790     -1.4841557800
 H     -2.6123185093     -2.7792809490      0.5037101592
 H     -3.0581212712     -1.9509927169     -1.0321264829
 H      2.9503865383     -1.9406696969     -0.8228684803
 H      2.4753580448     -1.0758624532     -2.3031545136
 H      1.7072718532     -2.6121165800     -1.9450366625
 C     -0.1380728873      3.1905140930      1.5857186862
 C      1.9094242817      2.0787573529      0.3877449097
 N      2.2302822390      0.9660331625     -0.2666230504
 H     -0.2437625235      4.0866268961      0.9482548714
 H      0.4102688866      3.4463552727      2.5051604438
 H     -1.1498159886      2.8262888063      1.8491517358
24
# ORCA AIMD Position Step 16, t=8.00 fs, E_Pot=-667.71905760 Hartree, Unit is Angstrom
 H     -3.2781945254     -1.1352184177      0.5572161909
 N      0.9586629512     -1.0323682785     -0.7675544156
 C      0.0813535815      0.8487000596      0.3901532742
 N     -1.3323281097     -1.0698231596     -0.0244055881
 C     -1.2869146761      0.2943159339      0.4974599642
 C     -0.3226636936     -1.6980337938     -0.7673379185
 C      1.0914477917      0.2285505828     -0.2421836760
 N      0.6023174668      2.0841789855      0.8239863398
 O     -0.5272442102     -2.8123938458     -1.2285803367
 C     -2.6295722385     -1.8002320312     -0.0113937914
 O     -2.2564411689      0.7888079299      1.0639508216
 H      2.6055536210      2.8794086986      0.6346404383
 C      2.1135764524     -1.7098039371     -1.4839488691
 H     -2.6061891264     -2.7794443958      0.4998586802
 H     -3.0545943062     -1.9468968646     -1.0283620934
 H      2.9474349288     -1.9496716497     -0.8218995044
 H      2.4799084514     -1.0691872386     -2.2946450631
 H      1.7062848357     -2.6102099314     -1.9421569834
 C     -0.1374191120      3.1920473936      1.5863146137
 C      1.9100317231      2.0777445319      0.3868389532
 N      2.2306454409      0.9654042319     -0.2685174439
 H     -0.2455317799      4.0846837549      0.9485453651
 H      0.4149756538      3.4535178870      2.5006230376
 H     -1.1432403938      2.8262720411      1.8556436795
24
# ORCA AIMD Position Step 17, t=8.50 fs, E_Pot=-667.72068789 Hartree, Unit is Angstrom
 H     -3.2823110807     -1.1391172643      0.5558055684
 N      0.9603941954     -1.0371300566     -0.7684057801
 C      0.0792522413      0.8488523213      0.3907365189
 N     -1.3333144118     -1.0718326832     -0.0211171677
 C     -1.2842115148      0.2934210226      0.4942956889
 C     -0.3217305008     -1.6974701916     -0.7689965105
 C      1.0898176595      0.2309090930     -0.2409145423
 N      0.6020148394      2.0866459414      0.8257543515
 O     -0.5295872264     -2.8104665625     -1.2294702936
 C     -2.6290436170     -1.8030580605     -0.0116218689
 O     -2.2582700200      0.7893659583      1.0623152145
 H      2.6061244745      2.8746531925      0.6324226991
 C      2.1124139743     -1.7084776934     -1.4837553040
 H     -2.5987781422     -2.7781597044      0.4952107747
 H     -3.0497112252     -1.9423416330     -1.0227451578
 H      2.9438777032     -1.9585986163     -0.8204418672
 H      2.4844016723     -1.0624275450     -2.2853486365
 H      1.7054896915     -2.6086578361     -1.9386681449
 C     -0.1366661263      3.1933583764      1.5867465714
 C      1.9106342533      2.0767821774      0.3860193638
 N      2.2313779479      0.9649748071     -0.2704059514
 H     -0.2468774127      4.0816997523      0.9493828945
 H      0.4194483650      3.4603345018      2.4951212161
 H     -1.1351195984      2.8262527511      1.8616234140
24
# ORCA AIMD Position Step 18, t=9.00 fs, E_Pot=-667.72195135 Hartree, Unit is Angstrom
 H     -3.2871873707     -1.1436739260      0.5541575220
 N      0.9622869276     -1.0423664922     -0.7695659944
 C      0.0769048247      0.8492200193      0.3914124800
 N     -1.3344914363     -1.0736892287     -0.0177682201
 C     -1.2816722195      0.2923972746      0.4913519548
 C     -0.3205427160     -1.6970874480     -0.7706045664
 C      1.0880119370      0.2331742453     -0.2396348869
 N      0.6015571515      2.0892977329      0.8276450970
 O     -0.5318521979     -2.8085206840     -1.2304562789
 C     -2.6285984684     -1.8057099446     -0.0118049928
 O     -2.2600127891      0.7899044472      1.0605756978
 H      2.6063750825      2.8699977364      0.6297429183
 C      2.1109840610     -1.7069722165     -1.4835477287
 H     -2.5901912787     -2.7759199029      0.4899990978
 H     -3.0437574389     -1.9375431397     -1.0160010646
 H      2.9396458765     -1.9673304293     -0.8185461269
 H      2.4888525338     -1.0556065957     -2.2754725228
 H      1.7048295933     -2.6075211626     -1.9348652225
 C     -0.1357749171      3.1944452959      1.5870161374
 C      1.9112095978      2.0758595099      0.3852856778
 N      2.2324606174      0.9647500734     -0.2722785997
 H     -0.2479054976      4.0779535285      0.9505418554
 H      0.4237597101      3.4668116463      2.4888272815
 H     -1.1259287506      2.8260979150      1.8671964403
24
# ORCA AIMD Position Step 19, t=9.50 fs, E_Pot=-667.72265474 Hartree, Unit is Angstrom
 H     -3.2926619645     -1.1490020354      0.5522894984
 N      0.9643161295     -1.0479789125     -0.7709819346
 C      0.0743567716      0.8498326652      0.3921806739
 N     -1.3358159045     -1.0753866797     -0.0143742195
 C     -1.2794103266      0.2912656415      0.4886805172
 C     -0.3191292514     -1.6968830645     -0.7721438713
 C      1.0860495514      0.2352637012     -0.2383880538
 N      0.6009567614      2.0920954029      0.8296355367
 O     -0.5340413376     -2.8065716688     -1.2315487727
 C     -2.6282174379     -1.8081174825     -0.0118931475
 O     -2.2616236219      0.7904043917      1.0587049770
 H      2.6065393842      2.8657550135      0.6267021854
 C      2.1093231999     -1.7053183183     -1.4832984114
 H     -2.5805429070     -2.7733188972      0.4845056115
 H     -3.0370918088     -1.9327372017     -1.0090239858
 H      2.9346778966     -1.9757416183     -0.8162695776
 H      2.4932872435     -1.0487304251     -2.2652519834
 H      1.7042552008     -2.6068371698     -1.9310460965
 C     -0.1347016405      3.1953048292      1.5871231567
 C      1.9117336161      2.0749640417      0.3846363735
 N      2.2338684631      0.9647327687     -0.2741246212
 H     -0.2487389431      4.0737905331      0.9517472488
 H      0.4280168084      3.4729741325      2.4819715315
 H     -1.1162410632      2.8256423788      1.8725033570
24
# ORCA AIMD Position Step 20, t=10.00 fs, E_Pot=-667.72278604 Hartree, Unit is Angstrom
 H     -3.2985896103     -1.1551831037      0.5502451831
 N      0.9664521751     -1.0538650851     -0.7725974844
 C      0.0716567594      0.8507151888      0.3930379495
 N     -1.3372421348     -1.0769193185     -0.0109513566
 C     -1.2775305927      0.2900453140      0.4863281182
 C     -0.3175223406     -1.6968532140     -0.7735951553
 C      1.0839525527      0.2371017234     -0.2372150261
 N      0.6002285254      2.0949976678      0.8317007670
 O     -0.5361573385     -2.8046358858     -1.2327583854
 C     -2.6278764390     -1.8102118607     -0.0118339480
 O     -2.2630630639      0.7908495402      1.0566794940
 H      2.6068439777      2.8622292170      0.6234031730
 C      2.1074695610     -1.7035533483     -1.4829826124