14
# ORCA AIMD Position Step 0, t=0.00 fs, E_Pot=-710.86969125 Hartree, Unit is Angstrom
 N      0.2680761154      0.5543394350      1.3113082440
 C      0.4046364206     -0.3367262777      0.1259270051
 C      1.9074732113     -0.2796347638     -0.3267654290
 O      2.7770355837      0.1282097545      0.6666837376
 C     -0.5407255445     -0.0190106756     -1.0590173332
 S     -2.2674849052     -0.2566928450     -0.5856055395
 O      2.2949865524     -0.5857750022     -1.4376349992
 H     -0.5602576300      0.2657234744      1.8520691910
 H      0.0581937950      1.5091925286      0.9816448098
 H      0.2165940737     -1.3578827934      0.4690117758
 H      2.1705847692      0.3827020246      1.4077236728
 H     -0.2644983391     -0.6696596850     -1.8869872854
 H     -0.3645327797      1.0061644086     -1.3834029400
 H     -2.7680813079      0.1190504189     -1.7589549171
14
# ORCA AIMD Position Step 1, t=0.50 fs, E_Pot=-710.86920214 Hartree, Unit is Angstrom
 N      0.2692846347      0.5560861601      1.3127261252
 C      0.4033052799     -0.3301295205      0.1312376288
 C      1.9092070571     -0.2778679223     -0.3261835272
 O      2.7790045954      0.1275365323      0.6688525391
 C     -0.5437917038     -0.0152931160     -1.0598626886
 S     -2.2695467822     -0.2536636078     -0.5858371781
 O      2.2950922320     -0.5852850684     -1.4380531994
 H     -0.5542027654      0.2626697908      1.8516204148
 H      0.0480034791      1.5144631947      0.9823150904
 H      0.2186520080     -1.3708466369      0.4660757092
 H      2.1741117700      0.3818940031      1.4008530749
 H     -0.2633096245     -0.6733840982     -1.8841225416
 H     -0.3549737018      1.0037839854     -1.3813029050
 H     -2.7788364636      0.1200363058     -1.7623185499
14
# ORCA AIMD Position Step 2, t=1.00 fs, E_Pot=-710.86794225 Hartree, Unit is Angstrom
 N      0.2704924744      0.5579076235      1.3141359385
 C      0.4019733512     -0.3237001980      0.1364920397
 C      1.9109292384     -0.2761016211     -0.3256108938
 O      2.7810114569      0.1268425940      0.6709567341
 C     -0.5468177432     -0.0116352762     -1.0606795791
 S     -2.2716145819     -0.2506292725     -0.5860814320
 O      2.2951929663     -0.5847910843     -1.4384561910
 H     -0.5485224891      0.2595081843      1.8515238348
 H      0.0380338664      1.5190327912      0.9832278659
 H      0.2208897338     -1.3822444857      0.4628887870
 H      2.1769687734      0.3814280888      1.3949919684
 H     -0.2622154722     -0.6768743477     -1.8810692923
 H     -0.3455602230      1.0018817134     -1.3794627019
 H     -2.7893431251      0.1208902616     -1.7652624226
14
# ORCA AIMD Position Step 3, t=1.50 fs, E_Pot=-710.86636895 Hartree, Unit is Angstrom
 N      0.2716959500      0.5598691238      1.3155362956
 C      0.4006448074     -0.3175828680      0.1416283040
 C      1.9126276716     -0.2743327147     -0.3250546543
 O      2.7830872915      0.1261093543      0.6729439455
 C     -0.5497665544     -0.0080889475     -1.0614412114
 S     -2.2736945673     -0.2475840592     -0.5863494595
 O      2.2952842016     -0.5842896303     -1.4388297770
 H     -0.5435279963      0.2561510947      1.8520963778
 H      0.0284914642      1.5223159073      0.9845863816
 H      0.2234342944     -1.3907545843      0.4592962825
 H      2.1786124934      0.3815981028      1.3909580319
 H     -0.2613047918     -0.6799192184     -1.8776595525
 H     -0.3364288473      1.0008744097     -1.3781142805
 H     -2.7993754633      0.1215001380     -1.7674193155
14
# ORCA AIMD Position Step 4, t=2.00 fs, E_Pot=-710.86497883 Hartree, Unit is Angstrom
 N      0.2728861591      0.5620195196      1.3169348294
 C      0.3993287343     -0.3118930583      0.1465781427
 C      1.9142901898     -0.2725582626     -0.3245207226
 O      2.7852506553      0.1253242315      0.6747795811
 C     -0.5526029877     -0.0046925200     -1.0621215061
 S     -2.2757920509     -0.2445230263     -0.5866498742
 O      2.2953616436     -0.5837774099     -1.4391607633
 H     -0.5394143604      0.2525503324      1.8535793670
 H      0.0195446150      1.5239134738      0.9865311165
 H      0.2263501891     -1.3953848997      0.4552509360
 H      2.1787074988      0.3826030967      1.3892852594
 H     -0.2606514245     -0.6823481841     -1.8737748592
 H     -0.3277200330      1.0010597168     -1.3774442605
 H     -2.8087404211      0.1217806708     -1.7685025775
14
# ORCA AIMD Position Step 5, t=2.50 fs, E_Pot=-710.86409220 Hartree, Unit is Angstrom
 N      0.2740478421      0.5643862633      1.3183500900
 C      0.3980387961     -0.3067121083      0.1512688582
 C      1.9159044919     -0.2707755045     -0.3240134043
 O      2.7875023217      0.1244831872      0.6764532453
 C     -0.5552939540     -0.0014664401     -1.0626953378
 S     -2.2779110096     -0.2414423116     -0.5869879979
 O      2.2954213443     -0.5832513109     -1.4394372772
 H     -0.5362234222      0.2487124864      1.8561115661
 H      0.0113058236      1.5236572227      0.9891244278
 H      0.2296378315     -1.3955212690      0.4508107205
 H      2.1772119900      0.3845069234      1.3901204366
 H     -0.2603076115     -0.6840471996     -1.8693621128
 H     -0.3195863959      1.0025761722     -1.3775785500
 H     -2.8172890481      0.1216799418     -1.7683290282
14
# ORCA AIMD Position Step 6, t=3.00 fs, E_Pot=-710.86374694 Hartree, Unit is Angstrom
 N      0.2751597709      0.5669730470      1.3198115426
 C      0.3967926086     -0.3020843260      0.1556257522
 C      1.9174582626     -0.2689818404     -0.3235351393
 O      2.7898238876      0.1235914735      0.6779799407
 C     -0.5578085688      0.0015888006     -1.0631387536
 S     -2.2800537829     -0.2383393067     -0.5873653928
 O      2.2954597713     -0.5827084489     -1.4396489607
 H     -0.5338335456      0.2447052001      1.8597188871
 H      0.0038198589      1.5216270921      0.9923447365
 H      0.2332361344     -1.3909494136      0.4461299128
 H      2.1743994663      0.3872259239      1.3932016773
 H     -0.2602998316     -0.6849682661     -1.8644416937
 H     -0.3121976656      1.0053867889     -1.3785746878
 H     -2.8249241062      0.1211828740     -1.7668329410
14
# ORCA AIMD Position Step 7, t=3.50 fs, E_Pot=-710.86373634 Hartree, Unit is Angstrom
 N      0.2761967783      0.5697601177      1.3213576394
 C      0.3956110640     -0.2980153860      0.1595746085
 C      1.9189394663     -0.2671748522     -0.3230864190
 O      2.7921807713      0.1226623284      0.6793956491
 C     -0.5601185370      0.0044918357     -1.0634291212
 S     -2.2822208707     -0.2352127521     -0.5877796606
 O      2.2954738601     -0.5821461837     -1.4397870325
 H     -0.5319787147      0.2406524822      1.8643226140
 H     -0.0029415857      1.5181433640      0.9960896816
 H      0.2370267690     -1.3818635292      0.4414481156
 H      2.1708073576      0.3905489860      1.3979260804
 H     -0.2606273347     -0.6851320857     -1.8591075921
 H     -0.3057399846      1.0092892552     -1.3804227624
 H     -2.8316039787      0.1203120681     -1.7640716015
14
# ORCA AIMD Position Step 8, t=4.00 fs, E_Pot=-710.86374428 Hartree, Unit is Angstrom
 N      0.2771330000      0.5727072642      1.3230322512
 C      0.3945176949     -0.2944716336      0.1630440430
 C      1.9203367440     -0.2653523791     -0.3226658750
 O      2.7945284880      0.1217140992      0.6807489290
 C     -0.5621988502      0.0072770016     -1.0635452655
 S     -2.2844108464     -0.2320627380     -0.5882245017
 O      2.2954610518     -0.5815621085     -1.4398442407
 H     -0.5302922861      0.2367198108      1.8697635788
 H     -0.0090776829      1.5137337404      1.0001880805
 H      0.2408393402     -1.3688656467      0.4370788033
 H      2.1671315302      0.3941824328      1.4034811583
 H     -0.2612635557     -0.6846235847     -1.8535197048
 H     -0.3004087255      1.0139499545     -1.3830540339
 H     -2.8373429056      0.1191261467     -1.7602227910
14
# ORCA AIMD Position Step 9, t=4.50 fs, E_Pot=-710.86349930 Hartree, Unit is Angstrom
 N      0.2779454920      0.5757593900      1.3248799621
 C      0.3935380162     -0.2913808209      0.1659677133
 C      1.9216398002     -0.2635126506     -0.3222705315
 O      2.7968201449      0.1207667355      0.6820912259
 C     -0.5640287130      0.0099889978     -1.0634677486
 S     -2.2866204086     -0.2288905970     -0.5886900405
 O      2.2954193248     -0.5809540154     -1.4398147327
 H     -0.5283654932      0.2330920557      1.8758363674
 H     -0.0147472666      1.5090744387      1.0044209626
 H      0.2444581422     -1.3529503151      0.4333964278
 H      2.1641013466      0.3978051151      1.4089979199
 H     -0.2621604210     -0.6835804932     -1.8478888007
 H     -0.2963958984      1.0189542453     -1.3863550525
 H     -2.8422073871      0.1177157164     -1.7555741141
14
# ORCA AIMD Position Step 10, t=5.00 fs, E_Pot=-710.86289140 Hartree, Unit is Angstrom
 N      0.2786172923      0.5788543897      1.3269408341
 C      0.3926986802     -0.2886356122      0.1682865351
 C      1.9228396824     -0.2616544530     -0.3218961685
 O      2.7990132687      0.1198385265      0.6834682356
 C     -0.5655924987      0.0126765234     -1.0631794390
 S     -2.2888445891     -0.2256986865     -0.5891634260
 O      2.2953472256     -0.5803198461     -1.4396938804
 H     -0.5258091604      0.2299483984      1.8823265314
 H     -0.0201475546      1.5049058739      1.0085514465
 H      0.2476323151     -1.3354598647      0.4308191048
 H      2.1623668525      0.4011199563      1.4136886426
 H     -0.2632553278     -0.6821756928     -1.8424551678
 H     -0.2938746241      1.0238633911     -1.3901845421
 H     -2.8463084445      0.1161969542     -1.7505038114
14
# ORCA AIMD Position Step 11, t=5.50 fs, E_Pot=-710.86202726 Hartree, Unit is Angstrom
 N      0.2791392987      0.5819326575      1.3292451893
 C      0.3920262259     -0.2861018755      0.1699513260
 C      1.9239288717     -0.2597772848     -0.3215378486
 O      2.8010749526      0.1189436789      0.6849135073
 C     -0.5668804888      0.0153857391     -1.0626664454
 S     -2.2910771262     -0.2224900684     -0.5896297185
 O      2.2952438841     -0.5796576354     -1.4394780496
 H     -0.5223089494      0.2274379138      1.8890445480
 H     -0.0254834785      1.5019287701      1.0123621025
 H      0.2500917094     -1.3179886450      0.4297823828
 H      2.1624149376      0.4038935911      1.4169502287
 H     -0.2644800892     -0.6805949714     -1.8374626232
 H     -0.2929835524      1.0282692792     -1.3943908178
 H     -2.8497896358      0.1147034436     -1.7454525315
14
# ORCA AIMD Position Step 12, t=6.00 fs, E_Pot=-710.86120714 Hartree, Unit is Angstrom
 N      0.2795105580      0.5849467974      1.3318093173
 C      0.3915452670     -0.2836326942      0.1709256718
 C      1.9249013815     -0.2578813739     -0.3211898596
 O      2.8029849983      0.1180903641      0.6864445113
 C     -0.5678893573      0.0181545009     -1.0619192315
 S     -2.2933109917     -0.2192681277     -0.5900730315
 O      2.2951090842     -0.5789655141     -1.4391645605
 H     -0.5176662065      0.2256608448      1.8958533574
 H     -0.0309318370      1.5006952842      1.0156921842
 H      0.2515711409     -1.3022202673      0.4307003051
 H      2.1645184436      0.4059843357      1.4184278810
 H     -0.2657713462     -0.6790119393     -1.8331310672
 H     -0.2938139426      1.0318405813     -1.3988269512
 H     -2.8528103938      0.1133738216     -1.7408880798
14
# ORCA AIMD Position Step 13, t=6.50 fs, E_Pot=-710.86080838 Hartree, Unit is Angstrom
 N      0.2797375522      0.5878699078      1.3346322834
 C      0.3912759515     -0.2810890694      0.1711901835
 C      1.9257526628     -0.2559677423     -0.3208461598
 O      2.8047375887      0.1172799077      0.6880607295
 C     -0.5686222478      0.0210076007     -1.0609339133
 S     -2.2955390285     -0.2160361522     -0.5904778762
 O      2.2949432723     -0.5782416834     -1.4387515357
 H     -0.5118232481      0.2246549468      1.9026857181
 H     -0.0366064431      1.5015164621      1.0184715821
 H      0.2518423534     -1.2896933836      0.4339110558
 H      2.1687110449      0.4073566155      1.4180479368
 H     -0.2670801361     -0.6775641760     -1.8296302505
 H     -0.2964004721      1.0343569919     -1.4033639455
 H     -2.8555263901      0.1123402489     -1.7372628989
14
# ORCA AIMD Position Step 14, t=7.00 fs, E_Pot=-710.86109498 Hartree, Unit is Angstrom
 N      0.2798328686      0.5907004184      1.3376946433
 C      0.3912310980     -0.2783636042      0.1707472345
 C      1.9264795393     -0.2540381088     -0.3205005099
 O      2.8063415805      0.1165064813      0.6897434122
 C     -0.5690885733      0.0239536335     -1.0597132885
 S     -2.2977546332     -0.2127969353     -0.5908305825
 O      2.2947475675     -0.5774844450     -1.4382378742
 H     -0.5048701540      0.2243898318      1.9095515994
 H     -0.0425343476      1.5044093245      1.0207402528
 H      0.2507502108     -1.2815335267      0.4396128411
 H      2.1747841595      0.4080860848      1.4160231054
 H     -0.2683795475     -0.6763337904     -1.8270591204
 H     -0.3007167495      1.0357301992     -1.4079005382
 H     -2.8580682846      0.1117157684     -1.7349694994
14
# ORCA AIMD Position Step 15, t=7.50 fs, E_Pot=-710.86204562 Hartree, Unit is Angstrom
 N      0.2798138043      0.5934622169      1.3409593267
 C      0.3914136807     -0.2754007549      0.1696252305
 C      1.9270801735     -0.2520947272     -0.3201464552
 O      2.8078195025      0.1157574159      0.6914568920
 C     -0.5693036369      0.0269836746     -1.0582673612
 S     -2.2999523932     -0.2095524520     -0.5911206262
 O      2.2945237461     -0.5766922586     -1.4376232954
 H     -0.4970334916      0.2247695821      1.9165346629
 H     -0.0486496964      1.5090984396      1.0226481373
 H      0.2482445226     -1.2782248697      0.4478042554
 H      2.1823042804      0.4083548228      1.4128320273
 H     -0.2696688620     -0.6753358274     -1.8254339746
 H     -0.3066754190      1.0360114837     -1.4123693762
 H     -2.8605217490      0.1115829576     -1.7342988507
14
# ORCA AIMD Position Step 16, t=8.00 fs, E_Pot=-710.86332962 Hartree, Unit is Angstrom
 N      0.2797011048      0.5961999826      1.3443746409
 C      0.3918154230     -0.2722061685      0.1678808836
 C      1.9275540033     -0.2501403208     -0.3197775068
 O      2.8092051902      0.1150141992      0.6931518837
 C     -0.5692882134      0.0300718934     -1.0566132541
 S     -2.3021285747     -0.2063036407     -0.5913416661
 O      2.2942741791     -0.5758637711     -1.4369083715
 H     -0.4886472369      0.2256439978      1.9237781285
 H     -0.0548071086      1.5150710762      1.0244346198
 H      0.2443974044     -1.2795070166      0.4582491014
 H      2.1906532759      0.4084353810      1.4091691979
 H     -0.2709733390     -0.6745163432     -1.8246873892
 H     -0.3141321687      1.0353862347     -1.4167387643
 H     -2.8629120549      0.1119850100     -1.7354080690
14
# ORCA AIMD Position Step 17, t=8.50 fs, E_Pot=-710.86447766 Hartree, Unit is Angstrom
 N      0.2795176552      0.5989710226      1.3478791813
 C      0.3924174799     -0.2688416960      0.1655975684
 C      1.9279018227     -0.2481776410     -0.3193863535
 O      2.8105391579      0.1142546378      0.6947706208
 C     -0.5690678590      0.0331780642     -1.0547742398
 S     -2.3042814156     -0.2030503286     -0.5914921273
 O      2.2940017501     -0.5749979831     -1.4360947477
 H     -0.4801088833      0.2268268390      1.9314581188
 H     -0.0608106335      1.5216707366      1.0263942292
 H      0.2393973442     -1.2844402867      0.4704836963
 H      2.1991015951      0.4086572041      1.4058584474
 H     -0.2723396794     -0.6737617684     -1.8246782278
 H     -0.3228948115      1.0341547740     -1.4210110655
 H     -2.8651961629      0.1129227521     -1.7383022189
14
# ORCA AIMD Position Step 18, t=9.00 fs, E_Pot=-710.86513505 Hartree, Unit is Angstrom
 N      0.2792868616      0.6018353371      1.3514078390
 C      0.3931924327     -0.2654078494      0.1628804180
 C      1.9281256704     -0.2462094804     -0.3189650467
 O      2.8118625680      0.1134558915      0.6962548568
 C     -0.5686723063      0.0362518756     -1.0527784817
 S     -2.3064111294     -0.1997912759     -0.5915752099
 O      2.2937097214     -0.5740942516     -1.4351851885
 H     -0.4718230831      0.2281213699      1.9397491554
 H     -0.0664499148      1.5282048806      1.0288342138
 H      0.2335240730     -1.2916130079      0.4838647559
 H      2.2069090229      0.4093589594      1.4037294635
 H     -0.2738281201     -0.6729158401     -1.8252106777
 H     -0.3327347336      1.0327006805     -1.4252148558
 H     -2.8672640063      0.1143551481     -1.7428347237
14
# ORCA AIMD Position Step 19, t=9.50 fs, E_Pot=-710.86521721 Hartree, Unit is Angstrom
 N      0.2790306752      0.6048459334      1.3548981880
 C      0.3941073665     -0.2620211390      0.1598488486
 C      1.9282286316     -0.2442386154     -0.3185050090
 O      2.8132098507      0.1125983959      0.6975553982
 C     -0.5681346225      0.0392386488     -1.0506574981
 S     -2.3085196548     -0.1965243408     -0.5915983406
 O      2.2934015936     -0.5731523059     -1.4341836181
 H     -0.4641415441      0.2293488101      1.9487838781
 H     -0.0715358539      1.5340460606      1.0320340520
 H      0.2271112056     -1.2994086242      0.4976445220
 H      2.2134469851      0.4108273028      1.4034688346
 H     -0.2755026725     -0.6718024407     -1.8260592924
 H     -0.3434013581      1.0314472501     -1.4293924957
 H     -2.8689490163      0.1162052900     -1.7487254650
14
# ORCA AIMD Position Step 20, t=10.00 fs, E_Pot=-710.86487966 Hartree, Unit is Angstrom
 N      0.2787675931      0.6080408063      1.3582963339
 C      0.3951270562     -0.2587932593      0.1566284493
 C      1.9282145802     -0.2422677876     -0.3179971835
 O      2.8146016846      0.1116698193      0.6986413554
 C     -0.5674902152      0.0420859034     -1.0484447146
 S     -2.3106101883     -0.1932467371     -0.5915721682
 O      2.2930809642     -0.5721722288     -1.4330950798
 H     -0.4573090070      0.2303753019      1.9586144691
 H     -0.0759301377      1.5387126128      1.0362121592
 H      0.2205076549     -1.3062513352      0.5110512974
 H      2.2183152848      0.4132352897      1.4054763929
 H     -0.2774211567     -0.6702503096     -1.8269962307
 H     -0.3546377769      1.0308056214     -1.4335834636
 H     -2.8700459141      0.1183700665     -1.7555934309
14
# ORCA AIMD Position Step 21, t=10.50 fs, E_Pot=-710.86436710 Hartree, Unit is Angstrom
 N      0.2785112565      0.6114374247      1.3615613777
 C      0.3962166544     -0.2558160664      0.1533437078
 C      1.9280879526     -0.2402997320     -0.3174323391
 O      2.8160404481      0.1106679181      0.6995064164
 C     -0.5667757801      0.0447499693     -1.0461742956
 S     -2.3126865794     -0.1899553510     -0.5915092823
 O      2.2927513947     -0.5711544029     -1.4319256020
 H     -0.4514263579      0.2311318509      1.9691842396
 H     -0.0795659638      1.5419234170      1.0415025881
 H      0.2140453071     -1.3107847831      0.5233588507
 H      2.2214181317      0.4165983831      1.4097691036
 H     -0.2796264469     -0.6681161686     -1.8278171112
 H     -0.3661954191      1.0311206369     -1.4378054069
 H     -2.8703326288      0.1207318474     -1.7629982147
14
# ORCA AIMD Position Step 22, t=11.00 fs, E_Pot=-710.86387308 Hartree, Unit is Angstrom
 N      0.2782702189      0.6150300747      1.3646678401
 C      0.3973436774     -0.2531528475      0.1501122446
 C      1.9278536482     -0.2383372472     -0.3168014913
 O      2.8175097545      0.1096012873      0.7001699379
 C     -0.5660283350      0.0472017135     -1.0438802588
 S     -2.3147526825     -0.1866470761     -0.5914228518
 O      2.2924162877     -0.5700994285     -1.4306819672
 H     -0.4464391190      0.2316225375      1.9803169131
 H     -0.0824594213      1.5436264358      1.0479423852
 H      0.2080155710     -1.3119780485      0.5339378629
 H      2.2229724863      0.4207637548      1.4159667130
 H     -0.2821398793     -0.6653035968     -1.8283626998
 H     -0.3778454641      1.0326227722     -1.4420361063
 H     -2.8695929537      0.1231704448     -1.7704841090
14
# ORCA AIMD Position Step 23, t=11.50 fs, E_Pot=-710.86348867 Hartree, Unit is Angstrom
 N      0.2780490791      0.6187900816      1.3676057372
 C      0.3984793641     -0.2508343750      0.1470405372
 C      1.9275170928     -0.2363832954     -0.3160963899
 O      2.8189782050      0.1084877215      0.7006724546
 C     -0.5652844692      0.0494304817     -1.0415957142
 S     -2.3168117485     -0.1833191240     -0.5913253479
 O      2.2920787734     -0.5690080193     -1.4293713953
 H     -0.4421535829      0.2319188838      1.9917273256
 H     -0.0847117502      1.5440023184      1.0554693232
 H      0.2026537604     -1.3091763084      0.5422905974
 H      2.2234462742      0.4254372423      1.4233651054
 H     -0.2849573035     -0.6617759466     -1.8285346017
 H     -0.3893852846      1.0353950051     -1.4462002556
 H     -2.8676371302      0.1255739447     -1.7776215385
14
# ORCA AIMD Position Step 24, t=12.00 fs, E_Pot=-710.86322582 Hartree, Unit is Angstrom
 N      0.2778506509      0.6226687556      1.3703784257
 C      0.3995996067     -0.2488577667      0.1442207493
 C      1.9270844159     -0.2344411185     -0.3153100258
 O      2.8204059313      0.1073507924      0.7010672543
 C     -0.5645798531      0.0514456038     -1.0393520232
 S     -2.3188659184     -0.1799692787     -0.5912274635
 O      2.2917416081     -0.5678808860     -1.4280011722
 H     -0.4382760881      0.2321416789      2.0030518451
 H     -0.0865023864      1.5434434757      1.0639297082
 H      0.1981286780     -1.3021189271      0.5480737706
 H      2.2234501797      0.4302383470      1.4310713306
 H     -0.2880479041     -0.6575624138     -1.8283039301
 H     -0.4006394627      1.0393614281     -1.4501645500
 H     -2.8643185682      0.1278475709     -1.7840423407
14
# ORCA AIMD Position Step 25, t=12.50 fs, E_Pot=-710.86305759 Hartree, Unit is Angstrom
 N      0.2776784478      0.6266028081      1.3729986874
 C      0.4006856465     -0.2471866156      0.1417282333
 C      1.9265626420     -0.2325143532     -0.3144371093
 O      2.8217518187      0.1062157455      0.7014106781
 C     -0.5639489353      0.0532752396     -1.0371777574
 S     -2.3209158500     -0.1765960767     -0.5911372836
 O      2.2914070921     -0.5667186208     -1.4265782625
 H     -0.4344660873      0.2324343881      2.0138921542
 H     -0.0880721696      1.5425077140      1.0730960917
 H      0.1945348547     -1.2909427704      0.5511146867
 H      2.2236180675      0.4347658891      1.4381584113
 H     -0.2913557082     -0.6527569772     -1.8277124704
 H     -0.4114563720      1.0442999664     -1.4537429308
 H     -2.8595459077      0.1299202688     -1.7894671805
14
# ORCA AIMD Position Step 26, t=13.00 fs, E_Pot=-710.86293678 Hartree, Unit is Angstrom
 N      0.2775386567      0.6305218729      1.3754837131
 C      0.4017246566     -0.2457516150      0.1396194633
 C      1.9259598040     -0.2306071153     -0.3134744796
 O      2.8229797080      0.1051056978      0.7017534418
 C     -0.5634246876      0.0549628292     -1.0350975146
 S     -2.3229604879     -0.1731989085     -0.5910597182
 O      2.2910770091     -0.5655215955     -1.4251089431
 H     -0.4303921371      0.2329335708      2.0238639565
 H     -0.0896962239      1.5418459366      1.0826942643
 H      0.1918860021     -1.2761796274      0.5514234361
 H      2.2245044069      0.4386586182      1.4438037578
 H     -0.2948035473     -0.6475103621     -1.8268662451
 H     -0.4217023407      1.0498762775     -1.4567114475
 H     -2.8532903292      0.1317489266     -1.7937246875
14
# ORCA AIMD Position Step 27, t=13.50 fs, E_Pot=-710.86279361 Hartree, Unit is Angstrom
 N      0.2774410228      0.6343575353      1.3778497460
 C      0.4027102083     -0.2444517731      0.1379304283
 C      1.9252849757     -0.2287240171     -0.3124213303
 O      2.8240627892      0.1040386955      0.7021341131
 C     -0.5630382331      0.0565618079     -1.0331308046
 S     -2.3249969763     -0.1697780480     -0.5909961943
 O      2.2907525868     -0.5642898891     -1.4235985092
 H     -0.4257820645      0.2337412815      2.0326425842
 H     -0.0916473856      1.5421072726      1.0924373725
 H      0.1901099095     -1.2587467969      0.5492005122
 H      2.2265114771      0.4416419207      1.4473927132
 H     -0.2982991521     -0.6420156028     -1.8259217724
 H     -0.4312556706      1.0556917583     -1.4588300697
 H     -2.8455884249      0.1333205003     -1.7967624144
14
# ORCA AIMD Position Step 28, t=14.00 fs, E_Pot=-710.86253718 Hartree, Unit is Angstrom
 N      0.2773985060      0.6380528441      1.3801071715
 C      0.4036424054     -0.2431571383      0.1366759373
 C      1.9245482078     -0.2268701092     -0.3112793014
 O      2.8249862507      0.1030257556      0.7025749672
 C     -0.5628182676      0.0581294291     -1.0312913073
 S     -2.3270207081     -0.1663346187     -0.5909445992
 O      2.2904344858     -0.5630232624     -1.4220511030
 H     -0.4204615343      0.2349031114      2.0399997762
 H     -0.0941541065      1.5438324293      1.1020624859
 H      0.1890471492     -1.2399202003      0.5448350141
 H      2.2298460181      0.4435588013      1.4485845108
 H     -0.3017429163     -0.6364882164     -1.8250657622
 H     -0.4400022355      1.0613369744     -1.4598675855
 H     -2.8365409419      0.1346521792     -1.7986497509
14
# ORCA AIMD Position Step 29, t=14.50 fs, E_Pot=-710.86208649 Hartree, Unit is Angstrom
 N      0.2774259963      0.6415707313      1.3822567574
 C      0.4045273360     -0.2417146630      0.1358506702
 C      1.9237603873     -0.2250507231     -0.3100524667
 O      2.8257485156      0.1020697495      0.7030799326
 C     -0.5627902990      0.0597205182     -1.0295867183
 S     -2.3290255089     -0.1628704810     -0.5908994735
 O      2.2901228099     -0.5617211775     -1.4204696640
 H     -0.4143775367      0.2363943816      2.0458283840
 H     -0.0973603091      1.5473544357      1.1113627978
 H      0.1884583322     -1.2212706098      0.5388843356
 H      2.2344997940      0.4443871892      1.4473453236
 H     -0.3050365945     -0.6311427292     -1.8244899009
 H     -0.4478335104      1.0664425617     -1.4596257834
 H     -2.8263075917      0.1357893460     -1.7995727380
14
# ORCA AIMD Position Step 30, t=15.00 fs, E_Pot=-710.86143365 Hartree, Unit is Angstrom
 N      0.2775386993      0.6448995664      1.3842877031
 C      0.4053753425     -0.2399592415      0.1354329109
 C      1.9229330809     -0.2232711952     -0.3087471396
 O      2.8263613178      0.1011650347      0.7036342683
 C     -0.5629757771      0.0613818695     -1.0280191997
 S     -2.3310039482     -0.1593880505     -0.5908524743
 O      2.2898171393     -0.5603828678     -1.4188560123
 H     -0.4076059668      0.2381157423      2.0501530883
 H     -0.1012967608      1.5527302974      1.1202082028
 H      0.1880462972     -1.2045391847      0.5320244358
 H      2.2402492163      0.4442450333      1.4439532855
 H     -0.3080920865     -0.6261680501     -1.8243634490
 H     -0.4546470703      1.0707219649     -1.4579600515
 H     -2.8150980945      0.1368014726     -1.7998201921
14
# ORCA AIMD Position Step 31, t=15.50 fs, E_Pot=-710.86070074 Hartree, Unit is Angstrom
 N      0.2777507659      0.6480544116      1.3861779146
 C      0.4061976561     -0.2377312733      0.1353915540
 C      1.9220783651     -0.2215364857     -0.3073715382
 O      2.8268486607      0.1002978810      0.7042060030
 C     -0.5633912591      0.0631478161     -1.0265862889
 S     -2.3329477709     -0.1558900532     -0.5907931255
 O      2.2895165869     -0.5590074556     -1.4172110682
 H     -0.4003431038      0.2398988293      2.0531260495
 H     -0.1058722397      1.5597227479      1.1285493956
 H      0.1874984921     -1.1914363652      0.5249639260
 H      2.2466735887      0.4433826536      1.4389752919
 H     -0.3108392477     -0.6217048239     -1.8248072863
 H     -0.4603489454      1.0740029158     -1.4547946320
 H     -2.8031596810      0.1377759184     -1.7997604882
14
# ORCA AIMD Position Step 32, t=16.00 fs, E_Pot=-710.86012470 Hartree, Unit is Angstrom
 N      0.2780743768      0.6510735156      1.3878964548
 C      0.4070017217     -0.2348998220      0.1356956891
 C      1.9212085374     -0.2198505836     -0.3059348295
 O      2.8272441967      0.0994478584      0.7047492744
 C     -0.5640476878      0.0650373578     -1.0252818774
 S     -2.3348484414     -0.1523792318     -0.5907098618
 O      2.2892198978     -0.5575941267     -1.4155352299
 H     -0.3928811187      0.2415220484      2.0550066925
 H     -0.1108876085      1.5678377042      1.1364060508
 H      0.1865483086     -1.1833749394      0.5183285323
 H      2.2531974623      0.4421588376      1.4332096853
 H     -0.3132317931     -0.6178281988     -1.8258738289
 H     -0.4648572554      1.0762462697     -1.4501316068
 H     -2.7907612819      0.1388098344     -1.7998091498
14
# ORCA AIMD Position Step 33, t=16.50 fs, E_Pot=-710.85994229 Hartree, Unit is Angstrom
 N      0.2785191862      0.6540108857      1.3894081014
 C      0.4077852998     -0.2313862564      0.1363246773
 C      1.9203358892     -0.2182163740     -0.3044477324
 O      2.8275875235      0.0985905332      0.7052109586
 C     -0.5649501507      0.0670529746     -1.0240973230
 S     -2.3366976865     -0.1488579972     -0.5905913154
 O      2.2889254962     -0.5561422630     -1.4138286902
 H     -0.3855686803      0.2427360631      2.0561267972
 H     -0.1160688534      1.5764071980      1.1438416388
 H      0.1850426968     -1.1811962441      0.5125452191