15
# ORCA AIMD Position Step 0, t=0.00 fs, E_Pot=-229.30097986 Hartree, Unit is Angstrom
 H      2.8694754430      0.0375565754      1.6808370845
 C      2.3319082836     -0.0205297002      0.7391683725
 H      2.6482497988      0.8021230957      0.1054419087
 H      2.5890812540     -0.9535795951      0.2475234661
 C      0.8126716241      0.0511091982      0.9906536995
 H      0.5063553438     -0.7728217914      1.6474272006
 H      0.5661642080      0.9872781096      1.5072482596
 O      0.1408555986     -0.0268892119     -0.2754716561
 C     -1.2795082561      0.0368875795     -0.0780056745
 H     -1.6231863819     -0.7873006395      0.5596796116
 H     -1.5636468129      0.9727981927      0.4193719336
 C     -1.9654253122     -0.0497364008     -1.4558558650
 H     -1.6465108859      0.7730951915     -2.0880589748
 H     -1.7075461734     -0.9826567470     -1.9473778771
 H     -3.0440377332     -0.0029338565     -1.3396814859
15
# ORCA AIMD Position Step 1, t=0.50 fs, E_Pot=-229.30041845 Hartree, Unit is Angstrom
 H      2.8751481341      0.0392437706      1.6846660568
 C      2.3294313650     -0.0137946788      0.7438666516
 H      2.6552110984      0.8038910963      0.1060121933
 H      2.5983680076     -0.9617403738      0.2546969841
 C      0.8084241016      0.0549059694      0.9890697400
 H      0.4971015493     -0.7638222556      1.6439378476
 H      0.5678752455      0.9838463535      1.5039038506
 O      0.1406857229     -0.0263063435     -0.2760762309
 C     -1.2842106229      0.0397405027     -0.0783090997
 H     -1.6222047153     -0.8005274077      0.5559620604
 H     -1.5611659492      0.9719765630      0.4116391536
 C     -1.9667636229     -0.0495427509     -1.4555105268
 H     -1.6378742269      0.7706689101     -2.0866371337
 H     -1.7196403942     -0.9816476751     -1.9515317639
 H     -3.0454856946     -0.0024916800     -1.3327897797
15
# ORCA AIMD Position Step 2, t=1.00 fs, E_Pot=-229.29893507 Hartree, Unit is Angstrom
 H      2.8804371082      0.0410800537      1.6883248695
 C      2.3270406817     -0.0072230205      0.7484994406
 H      2.6619713671      0.8055923208      0.1066741696
 H      2.6070957977     -0.9685239649      0.2623878848
 C      0.8042420783      0.0586537859      0.9874724636
 H      0.4879130226     -0.7551953792      1.6407104208
 H      0.5692736524      0.9812419327      1.5009122973
 O      0.1404844693     -0.0257172982     -0.2766934328
 C     -1.2888258400      0.0424310956     -0.0786215101
 H     -1.6210991873     -0.8127927038      0.5519429855
 H     -1.5590523596      0.9717677709      0.4044680773
 C     -1.9681138622     -0.0493368219     -1.4551707933
 H     -1.6294958868      0.7682686443     -2.0852361365
 H     -1.7315177564     -0.9807955380     -1.9555833344
 H     -3.0468451693     -0.0018715930     -1.3260911821
15
# ORCA AIMD Position Step 3, t=1.50 fs, E_Pot=-229.29701658 Hartree, Unit is Angstrom
 H      2.8850069420      0.0432173739      1.6916858164
 C      2.3248052910     -0.0009289280      0.7530304871
 H      2.6683603172      0.8071680149      0.1075217880
 H      2.6148019853     -0.9728215628      0.2710110563
 C      0.8001698552      0.0623231932      0.9858461754
 H      0.4788193701     -0.7472421250      1.6379670174
 H      0.5700797219      0.9802059879      1.4985771321
 O      0.1402211100     -0.0251138996     -0.2773380162
 C     -1.2932884897      0.0448234800     -0.0789552309
 H     -1.6197808927     -0.8232917071      0.5473790996
 H     -1.5576279911      0.9727222916      0.3983372950
 C     -1.9694919606     -0.0491072775     -1.4548419197
 H     -1.6215872300      0.7659078570     -2.0838690465
 H     -1.7430260921     -0.9802282165     -1.9594428791
 H     -3.0480481774     -0.0009017018     -1.3197435449
15
# ORCA AIMD Position Step 4, t=2.00 fs, E_Pot=-229.29522681 Hartree, Unit is Angstrom
 H      2.8885635928      0.0458003829      1.6946670685
 C      2.3227825097      0.0050007105      0.7574343542
 H      2.6742167326      0.8085680710      0.1086419574
 H      2.6211144162     -0.9738397880      0.2808179142
 C      0.7962453463      0.0658933264      0.9841850463
 H      0.4698632792     -0.7401977427      1.6358825005
 H      0.5700655577      0.9813091739      1.4971150974
 O      0.1398669853     -0.0244884376     -0.2780238445
 C     -1.2975372188      0.0468104403     -0.0793228704
 H     -1.6182156640     -0.8313855928      0.5421348429
 H     -1.5571473595      0.9752320512      0.3936192653
 C     -1.9709112804     -0.0488457739     -1.4545303965
 H     -1.6143422210      0.7636006647     -2.0825509104
 H     -1.7540323734     -0.9800367248     -1.9630142546
 H     -3.0490489131      0.0005765315     -1.3138934430
15
# ORCA AIMD Position Step 5, t=2.50 fs, E_Pot=-229.29399414 Hartree, Unit is Angstrom
 H      2.8908698302      0.0489641626      1.6972486341
 C      2.3210141582      0.0105095134      0.7616964658
 H      2.6793954639      0.8097590538      0.1101073064
 H      2.6257724179     -0.9711406858      0.2918880354
 C      0.7924975276      0.0693565703      0.9824976661
 H      0.4611079285     -0.7342070435      1.6345659148
 H      0.5690758205      0.9848692796      1.4966130883
 O      0.1393960624     -0.0238338075     -0.2787634854
 C     -1.3015170565      0.0483247371     -0.0797351835
 H     -1.6164303426     -0.8366473300      0.5362003726
 H     -1.5577725935      0.9794472732      0.3905356414
 C     -1.9723820576     -0.0485477668     -1.4542439930
 H     -1.6079305702      0.7613642601     -2.0813014820
 H     -1.7644265319     -0.9802680125     -1.9661945154
 H     -3.0498303756      0.0027036308     -1.3086718862
15
# ORCA AIMD Position Step 6, t=3.00 fs, E_Pot=-229.29346982 Hartree, Unit is Angstrom
 H      2.8917562297      0.0528319880      1.6994816680
 C      2.3195239402      0.0155726260      0.7658126119
 H      2.6837740029      0.8107313240      0.1119693783
 H      2.6286393371     -0.9646562670      0.3041326478
 C      0.7889450258      0.0727210363      0.9808093648
 H      0.4526414540     -0.7293102692      1.6340496713
 H      0.5670386708      0.9909051153      1.4970046887
 O      0.1387854036     -0.0231436400     -0.2795678410
 C     -1.3051809990      0.0493454653     -0.0801997563
 H     -1.6145128691     -0.8388883021      0.5296972481
 H     -1.5595613223      0.9852318672      0.3891346160
 C     -1.9739112222     -0.0482127674     -1.4539915588
 H     -1.6024921399      0.7592206562     -2.0801473654
 H     -1.7741231759     -0.9809234664     -1.9688757848
 H     -3.0504072462      0.0055980882     -1.3041909533
15
# ORCA AIMD Position Step 7, t=3.50 fs, E_Pot=-229.29350740 Hartree, Unit is Angstrom
 H      2.8911269937      0.0575129960      1.7014902380
 C      2.3183158467      0.0201965943      0.7697884502
 H      2.6872580336      0.8115043521      0.1142530530
 H      2.6297094762     -0.9546885033      0.3173041595
 C      0.7855960828      0.0760100395      0.9791615461
 H      0.4445772166     -0.7254418033      1.6342882768
 H      0.5639648711      0.9991389146      1.4980734022
 O      0.1380155450     -0.0224124136     -0.2804458192
 C     -1.3084905579      0.0498984797     -0.0807212317
 H     -1.6126079782     -0.8381677135      0.5228745529
 H     -1.5624695905      0.9921710270      0.3892957661
 C     -1.9755025822     -0.0478440207     -1.4537825707
 H     -1.5981327667      0.7571974315     -2.0791232896
 H     -1.7830615139     -0.9819630685     -1.9709494357
 H     -3.0508248223      0.0093530538     -1.3005414198
15
# ORCA AIMD Position Step 8, t=4.00 fs, E_Pot=-229.29376192 Hartree, Unit is Angstrom
 H      2.8889602297      0.0630996353      1.7034651696
 C      2.3173736143      0.0244184236      0.7736391374
 H      2.6897854555      0.8121295586      0.1169528358
 H      2.6291102002     -0.9418975212      0.3310103169
 C      0.7824497913      0.0792587144      0.9776080521
 H      0.4370493881     -0.7224417224      1.6351667588
 H      0.5599360926      1.0090460680      1.4994821396
 O      0.1370707888     -0.0216355449     -0.2814040569
 C     -1.3114154006      0.0500510801     -0.0813029749
 H     -1.6109092675     -0.8347852273      0.5160964394
 H     -1.5663679660      0.9996294361      0.3907601245
 C     -1.9771573203     -0.0474476712     -1.4536264694
 H     -1.5949215960      0.7553272656     -2.0782723258
 H     -1.7912039692     -0.9833143315     -1.9723122209
 H     -3.0511542126      0.0140337632     -1.2977913754
15
# ORCA AIMD Position Step 9, t=4.50 fs, E_Pot=-229.29386164 Hartree, Unit is Angstrom
 H      2.8853026144      0.0696648000      1.7056500126
 C      2.3166614662      0.0283034030      0.7773888635
 H      2.6913285083      0.8126902678      0.1200314664
 H      2.6270973090     -0.9272721572      0.3447355395
 C      0.7794982119      0.0825087878      0.9762093548
 H      0.4302043253     -0.7200779468      1.6365172754
 H      0.5550859879      1.0199382177      1.5008211301
 O      0.1359394113     -0.0208094541     -0.2824467072
 C     -1.3139325520      0.0499021570     -0.0819493363
 H     -1.6096473236     -0.8292549877      0.5098200911
 H     -1.5710659431      1.0068441567      0.3931766470
 C     -1.9788747328     -0.0470315405     -1.4535318862
 H     -1.5928899982      0.7536461792     -2.0776449660
 H     -1.7985340012     -0.9848845101     -1.9728736203
 H     -3.0514843393      0.0196757205     -1.2959857845
15
# ORCA AIMD Position Step 10, t=5.00 fs, E_Pot=-229.29358543 Hartree, Unit is Angstrom
 H      2.8802587361      0.0772586286      1.7083197166
 C      2.3161265215      0.0319406287      0.7810697634
 H      2.6918937652      0.8132986051      0.1234211087
 H      2.6240392905     -0.9120698839      0.3578748438
 C      0.7767288610      0.0858029027      0.9750258019
 H      0.4241890332     -0.7180751617      1.6381411608
 H      0.5495784831      1.0310595626      1.5016627224
 O      0.1346137881     -0.0199316006     -0.2835753049
 C     -1.3160257363      0.0495694144     -0.0826673356
 H     -1.6090728750     -0.8222576809      0.5045618197
 H     -1.5763389041      1.0130297041      0.3961538228
 C     -1.9806531185     -0.0466036844     -1.4535058859
 H     -1.5920321091      0.7521905354     -2.0772971008
 H     -1.8050535738     -0.9865742774     -1.9725634409
 H     -3.0519116181      0.0262836446     -1.2951469061
15
# ORCA AIMD Position Step 11, t=5.50 fs, E_Pot=-229.29298085 Hartree, Unit is Angstrom
 H      2.8739759469      0.0859050780      1.7117533922
 C      2.3157032784      0.0354348714      0.7847195413
 H      2.6915199222      0.8140893828      0.1270272232
 H      2.6203849774     -0.8977102713      0.3697865215
 C      0.7741271235      0.0891796605      0.9741111133
 H      0.4191384514     -0.7161461190      1.6398331234
 H      0.5435870267      1.0416780470      1.5016125020
 O      0.1330904404     -0.0190004885     -0.2847887195
 C     -1.3176853190      0.0491751460     -0.0834667713
 H     -1.6094339512     -0.8145682631      0.5008493194
 H     -1.5819531058      1.0174753322      0.3993070664
 C     -1.9824907104     -0.0461709019     -1.4535533581
 H     -1.5923069635      0.7509930143     -2.0772870437
 H     -1.8107805775     -0.9882910497     -1.9713386619
 H     -3.0525284729      0.0338311666     -1.2952754381
15
# ORCA AIMD Position Step 12, t=6.00 fs, E_Pot=-229.29236784 Hartree, Unit is Angstrom
 H      2.8666262469      0.0955985611      1.7162035567
 C      2.3153203044      0.0388939082      0.7883773051
 H      2.6902734747      0.8152111715      0.1307350980
 H      2.6166112251     -0.8856122745      0.3798666948
 C      0.7716783064      0.0926699895      0.9735069737
 H      0.4151632736     -0.7140213605      1.6414045112
 H      0.5372770038      1.0511599077      1.5003500733
 O      0.1313700137     -0.0180156458     -0.2860831948
 C     -1.3189090363      0.0488317745     -0.0843583380
 H     -1.6109471263     -0.8069617311      0.4991607372
 H     -1.5876862458      1.0196223711      0.4022966213
 C     -1.9843865279     -0.0457373619     -1.4536766545
 H     -1.5936420583      0.7500779217     -2.0776718489
 H     -1.8157464026     -0.9899603796     -1.9691886489
 H     -3.0534120581      0.0422612382     -1.2963521803
15
# ORCA AIMD Position Step 13, t=6.50 fs, E_Pot=-229.29220080 Hartree, Unit is Angstrom
 H      2.8583873963      0.1063010973      1.7218652335
 C      2.3149085966      0.0424120497      0.7920777391
 H      2.6882425506      0.8168148443      0.1344189093
 H      2.6131539989     -0.8769849954      0.3876405363
 C      0.7693692333      0.0962948963      0.9732391188
 H      0.4123396275     -0.7114744736      1.6427032648
 H      0.5307920753      1.0590234787      1.4976572021
 O      0.1294572054     -0.0169775843     -0.2874524646
 C     -1.3197033560      0.0486283924     -0.0853501065
 H     -1.6137651740     -0.8001076449      0.4998562312
 H     -1.5933430426      1.0191175694      0.4048546371
 C     -1.9863410283     -0.0453034942     -1.4538755257
 H     -1.5959380181      0.7494563336     -2.0785032423
 H     -1.8199937839     -0.9915342120     -1.9661381089
 H     -3.0546146320      0.0514871938     -1.2983399457
15
# ORCA AIMD Position Step 14, t=7.00 fs, E_Pot=-229.29282790 Hartree, Unit is Angstrom
 H      2.8494258163      0.1179405116      1.7288488339
 C      2.3144101421      0.0460531126      0.7958447529
 H      2.6855293443      0.8190399537      0.1379530347
 H      2.6103365573     -0.8726114449      0.3928526878
 C      0.7671894031      0.1000643135      0.9733149632
 H      0.4107014286     -0.7083412217      1.6436290526
 H      0.5242442994      1.0649733142      1.4934340272
 O      0.1273606635     -0.0158877509     -0.2888879295
 C     -1.3200850001      0.0486198641     -0.0864434506
 H     -1.6179463074     -0.7944731074      0.5031136377
 H     -1.5987663456      1.0158436626      0.4068024792
 C     -1.9883564502     -0.0448652721     -1.4541473496
 H     -1.5990738975      0.7491216647     -2.0798235282
 H     -1.8235750030     -0.9929952319     -1.9622474522
 H     -3.0561568994      0.0613944372     -1.3011854265
15
# ORCA AIMD Position Step 15, t=7.50 fs, E_Pot=-229.29427153 Hartree, Unit is Angstrom
 H      2.8398836656      0.1304101904      1.7371606266
 C      2.3137845332      0.0498381401      0.7996866114
 H      2.6822417624      0.8219995589      0.1412250546
 H      2.6083163339     -0.8726891257      0.3955299470
 C      0.7651317810      0.1039766814      0.9737226354
 H      0.4102357817     -0.7045318758      1.6441428510
 H      0.5177075881      1.0689177720      1.4877052591
 O      0.1250928670     -0.0147484779     -0.2903788802
 C     -1.3200819726      0.0488202666     -0.0876298936
 H     -1.6234322060     -0.7902580684      0.5088835861
 H     -1.6038445540      1.0099301570      0.4080599904
 C     -1.9904367843     -0.0444139851     -1.4544876049
 H     -1.6029126039      0.7490462933     -2.0816618576
 H     -1.8265505214     -0.9943569606     -1.9576104954
 H     -3.0580252955      0.0718428042     -1.3048207814
15
# ORCA AIMD Position Step 16, t=8.00 fs, E_Pot=-229.29617346 Hartree, Unit is Angstrom
 H      2.8298717472      0.1435707725      1.7466937734
 C      2.3130117585      0.0537427594      0.8035944562
 H      2.6784850697      0.8257647136      0.1441493634
 H      2.6070696950     -0.8767866206      0.3959920476
 C      0.7631932623      0.1080190241      0.9744312660
 H      0.4108815532     -0.7000366252      1.6442707114
 H      0.5112141758      1.0709727230      1.4806180172
 O      0.1226699818     -0.0135629364     -0.2919127642
 C     -1.3197335105      0.0492020555     -0.0888901311
 H     -1.6300415554     -0.7873812768      0.5168775013
 H     -1.6085157436      1.0017464675      0.4086477675
 C     -1.9925873618     -0.0439365682     -1.4548905094
 H     -1.6073059985      0.7491798272     -2.0840312466
 H     -1.8289880856     -0.9956596526     -1.9523496550
 H     -3.0601736775      0.0826697582     -1.3091648545
15
# ORCA AIMD Position Step 17, t=8.50 fs, E_Pot=-229.29794962 Hartree, Unit is Angstrom
 H      2.8194688092      0.1572539554      1.7572315600
 C      2.3120906266      0.0577055527      0.8075448159
 H      2.6743544832      0.8303506795      0.1466796731
 H      2.6064192202     -0.8839342858      0.3948041093
 C      0.7613747775      0.1121675016      0.9753924610
 H      0.4125311628     -0.6949240839      1.6441016706
 H      0.5047541537      1.0714520829      1.4724319231
 O      0.1201116646     -0.0123350866     -0.2934754942
 C     -1.3190887247      0.0497012620     -0.0901956711
 H     -1.6374822378     -0.7855204340      0.5265936716
 H     -1.6127681441      0.9918775208      0.4086821818
 C     -1.9948141127     -0.0434165049     -1.4553497408
 H     -1.6120993957      0.7494494660     -2.0869267151
 H     -1.8309622891     -0.9969624357     -1.9466089748
 H     -3.0625292796      0.0936946268     -1.3141241171
15
# ORCA AIMD Position Step 18, t=9.00 fs, E_Pot=-229.29905690 Hartree, Unit is Angstrom
 H      2.8087266709      0.1712683366      1.7684627915
 C      2.3110338930      0.0616442482      0.8115049643
 H      2.6699297352      0.8357075401      0.1488181953
 H      2.6060905771     -0.8928135888      0.3926869588
 C      0.7596809376      0.1163886326      0.9765429933
 H      0.4150356194     -0.6893328880      1.6437798452
 H      0.4982786182      1.0708436041      1.4635010052
 O      0.1174407845     -0.0110696174     -0.2950518013
 C     -1.3182041949      0.0502277397     -0.0915124680
 H     -1.6453800168     -0.7841932220      0.5373754761
 H     -1.6166358080      0.9810802698      0.4083615978
 C     -1.9971225982     -0.0428352497     -1.4558591588
 H     -1.6171353754      0.7497626864     -2.0903248388
 H     -1.8325544931     -0.9983325404     -1.9405455393
 H     -3.0650021799      0.1047240213     -1.3195935746
15
# ORCA AIMD Position Step 19, t=9.50 fs, E_Pot=-229.29921692 Hartree, Unit is Angstrom
 H      2.7976797018      0.1854069203      1.7800075850
 C      2.3098620009      0.0654740272      0.8154390506
 H      2.6652724901      0.8417177269      0.1506193264
 H      2.6057775030     -0.9019797031      0.3904140016
 C      0.7581190788      0.1206414972      0.9778087731
 H      0.4182127296     -0.6834564704      1.6434909027
 H      0.4917074182      1.0697670430      1.4542465477
 O      0.1146830401     -0.0097718664     -0.2966256226
 C     -1.3171411721      0.0506786077     -0.0928051780
 H     -1.6533172470     -0.7828557622      0.5484875995
 H     -1.6201879101      0.9702196177      0.4079418106
 C     -1.9995169512     -0.0421740443     -1.4564134549
 H     -1.6222569598      0.7500121722     -2.0941848576
 H     -1.8338529280     -0.9998328895     -1.9343200613
 H     -3.0674970268      0.1155583870     -1.3254579278
15
# ORCA AIMD Position Step 20, t=10.00 fs, E_Pot=-229.29849891 Hartree, Unit is Angstrom
 H      2.7863566547      0.1994556865      1.7914503097
 C      2.3085971176      0.0691229432      0.8193132405
 H      2.6604270839      0.8482018452      0.1521864316
 H      2.6051972063     -0.9100592773      0.3887199950
 C      0.7566975983      0.1248811661      0.9791100592
 H      0.4218581467     -0.6775215391      1.6434434737
 H      0.4849425501      1.0689125781      1.4451207067
 O      0.1118664776     -0.0084477198     -0.2981805039
 C     -1.3159631220      0.0509528533     -0.0940405980
 H     -1.6608737423     -0.7809955692      0.5591941972
 H     -1.6235106416      0.9601849528      0.4076998670
 C     -2.0019988623     -0.0414159265     -1.4570086580
 H     -1.6273102881      0.7500825824     -2.0984512649
 H     -1.8349527314     -1.0015096944     -1.9280876196
 H     -3.0699254525      0.1259993865     -1.3315932295
15
# ORCA AIMD Position Step 21, t=10.50 fs, E_Pot=-229.29725443 Hartree, Unit is Angstrom
 H      2.7747927687      0.2132025280      1.8023755736
 C      2.3072583633      0.0725420214      0.8230991063
 H      2.6554244358      0.8549325137      0.1536616535
 H      2.6041284195     -0.9158940905      0.3882345503
 C      0.7554235865      0.1290633321      0.9803676399
 H      0.4257585168     -0.6717616147      1.6438466955
 H      0.4778875593      1.0689609465      1.4365627139
 O      0.1090209343     -0.0071034951     -0.2996999948
 C     -1.3147340791      0.0509652913     -0.0951894415
 H     -1.6676634622     -0.7782042243      0.5688268468
 H     -1.6266824712      0.9517938606      0.4078884883
 C     -2.0045667381     -0.0405476840     -1.4576424305
 H     -1.6321469539      0.7498584819     -2.1030575719
 H     -1.8359556380     -1.0033818958     -1.9219895821
 H     -3.0722175478      0.1358576114     -1.3378691562
15
# ORCA AIMD Position Step 22, t=11.00 fs, E_Pot=-229.29595526 Hartree, Unit is Angstrom
 H      2.7630403592      0.2264459438      1.8124031787
 C      2.3058584186      0.0757100629      0.8267754039
 H      2.6502883561      0.8616543679      0.1552100701
 H      2.6024328212     -0.9186287973      0.3894411675
 C      0.7542999607      0.1331496616      0.9815093847
 H      0.4297055238     -0.6663880675      1.6448858679
 H      0.4704716416      1.0704929875      1.4289524056
 O      0.1061774388     -0.0057458123     -0.3011680078
 C     -1.3135178016      0.0506583546     -0.0962265135
 H     -1.6733636053     -0.7742248135      0.5768363591
 H     -1.6297464057      0.9456961353      0.4086876555
 C     -2.0072151282     -0.0395614991     -1.4583141043
 H     -1.6366261717      0.7492326086     -2.1079307601
 H     -1.8369690409     -1.0054341825     -1.9161475947
 H     -3.0743309552      0.1449600348     -1.3441518904
15
# ORCA AIMD Position Step 23, t=11.50 fs, E_Pot=-229.29500585 Hartree, Unit is Angstrom
 H      2.7511766671      0.2390030718      1.8212187527
 C      2.3044013259      0.0786345092      0.8303287963
 H      2.6450430728      0.8681074593      0.1570005021
 H      2.6000645101     -0.9177557555      0.3926560422
 C      0.7533225418      0.1371128873      0.9824762791
 H      0.4335092800     -0.6615621261      1.6466989498
 H      0.4626747927      1.0739032231      1.4225685680
 O      0.1033675896     -0.0043814590     -0.3025691293
 C     -1.3123772636      0.0500103953     -0.0971301271
 H     -1.6777354113     -0.7689762305      0.5828278782
 H     -1.6326856752      0.9422958517      0.4101636878
 C     -2.0099344859     -0.0384560684     -1.4590244335
 H     -1.6406169414      0.7481136451     -2.1129958597
 H     -1.8381041892     -1.0076148603     -1.9106601726
 H     -3.0762565044      0.1531566569     -1.3503075139
15
# ORCA AIMD Position Step 24, t=12.00 fs, E_Pot=-229.29459969 Hartree, Unit is Angstrom
 H      2.7393083288      0.2507168432      1.8285979178
 C      2.3028812121      0.0813499704      0.8337540829
 H      2.6397207177      0.8740511403      0.1591855794
 H      2.5970724167     -0.9131325491      0.3980196560
 C      0.7524777019      0.1409403847      0.9832269462
 H      0.4370094200     -0.6573719120      1.6493570549
 H      0.4545483573      1.0793361644      1.4175605235
 O      0.1006229189     -0.0030172526     -0.3038888771
 C     -1.3113738037      0.0490394957     -0.0978818998
 H     -1.6806375361     -0.7625594209      0.5865815741
 H     -1.6354101829      0.9417084465      0.4122467862
 C     -2.0127112979     -0.0372370600     -1.4597750878
 H     -1.6440003489      0.7464327662     -2.1181801161
 H     -1.8394734028     -1.0098391021     -1.9056019724
 H     -3.0780197566      0.1603259296     -1.3562057595
15
# ORCA AIMD Position Step 25, t=12.50 fs, E_Pot=-229.29466897 Hartree, Unit is Angstrom
 H      2.7275723214      0.2614621674      1.8344229334
 C      2.3012817387      0.0839155996      0.8370542735
 H      2.6343677100      0.8792859650      0.1618834016
 H      2.5935988158     -0.9049832090      0.4054962027
 C      0.7517412090      0.1446351803      0.9837398630
 H      0.4400825052     -0.6538183247      1.6528519680
 H      0.4462250579      1.0866616474      1.4139392633
 O      0.0979742356     -0.0016598989     -0.3051139171
 C     -1.3105654168      0.0478024085     -0.0984677512
 H     -1.6820331292     -0.7552503539      0.5880615812
 H     -1.6377588671      0.9437621282      0.4147340505
 C     -2.0155285864     -0.0359168650     -1.4605679554
 H     -1.6466721031      0.7441484153     -2.1234163248
 H     -1.8411863400     -1.0119972389     -1.9010253934
 H     -3.0796782769      0.1663787001     -1.3617239451
15
# ORCA AIMD Position Step 26, t=13.00 fs, E_Pot=-229.29494053 Hartree, Unit is Angstrom
 H      2.7161335369      0.2711510513      1.8386914347
 C      2.2995762215      0.0864118052      0.8402405511
 H      2.6290493178      0.8836718034      0.1651625514
 H      2.5898747768     -0.8938864923      0.4148793296
 C      0.7510786563      0.1482140548      0.9840129747
 H      0.4426449242     -0.6508124030      1.6570928758
 H      0.4379148000      1.0954960342      1.4115895487
 O      0.0954509446     -0.0003158525     -0.3062322547
 C     -1.3100041394      0.0463890667     -0.0988801607
 H     -1.6819910358     -0.7474824338      0.5874144091
 H     -1.6395183441      0.9480411668      0.4173176227
 C     -2.0183667606     -0.0345136998     -1.4614043663
 H     -1.6485453283      0.7412489547     -2.1286450631
 H     -1.8433455390     -1.0139669575     -1.8969638486
 H     -3.0813148764      0.1712605570     -1.3667509018
15
# ORCA AIMD Position Step 27, t=13.50 fs, E_Pot=-229.29507172 Hartree, Unit is Angstrom
 H      2.7051792991      0.2797364335      1.8415171417
 C      2.2977285280      0.0889360569      0.8433318826
 H      2.6238520216      0.8871409701      0.1690316224
 H      2.5862110969     -0.8807464263      0.4258063139
 C      0.7504474542      0.1517033199      0.9840610015
 H      0.4446512242     -0.6481848187      1.6619130707
 H      0.4298865225      1.1052633890      1.4102988735
 O      0.0930803565      0.0010088182     -0.3072334190
 C     -1.3097330164      0.0449137670     -0.0991209391
 H     -1.6806803822     -0.7398184892      0.5849558660
 H     -1.6404531869      0.9539582502      0.4196304236
 C     -2.0212047596     -0.0330501924     -1.4622843672
 H     -1.6495535368      0.7377530381     -2.1338157063
 H     -1.8460416162     -1.0156277061     -1.8934359281
 H     -3.0830274678      0.1749525667     -1.3711906875
15
# ORCA AIMD Position Step 28, t=14.00 fs, E_Pot=-229.29481380 Hartree, Unit is Angstrom
 H      2.6949111998      0.2872143321      1.8431223699
 C      2.2956950152      0.0915969327      0.8463538164
 H      2.6188835583      0.8897055501      0.1734339784
 H      2.5829813495     -0.8667335420      0.4377856621
 C      0.7497999689      0.1551334871      0.9839111762
 H      0.4460885475     -0.6457059453      1.6670857053
 H      0.4224401855      1.1152808436      1.4097955740
 O      0.0908870225      0.0023085512     -0.3081086472
 C     -1.3097834722      0.0435043354     -0.0992033016
 H     -1.6783568095     -0.7329104363      0.5811436745
 H     -1.6403404282      0.9608386609      0.4212983351
 C     -2.0240213934     -0.0315516361     -1.4632061691
 H     -1.6496536091      0.7337077488     -2.1388862490
 H     -1.8493486045     -1.0168753660     -1.8904497134
 H     -3.0849165660      0.1774704919     -1.3749658568
15
# ORCA AIMD Position Step 29, t=14.50 fs, E_Pot=-229.29414190 Hartree, Unit is Angstrom
 H      2.6855346569      0.2936237464      1.8438220647
 C      2.2934278616      0.0945053060      0.8493359542
 H      2.6142706469      0.8914582709      0.1782482061
 H      2.5805927685     -0.8531825757      0.4502438648
 C      0.7490871789      0.1585341377      0.9835983059
 H      0.4469683654     -0.6431131595      1.6723462005
 H      0.4158748933      1.1248493970      1.4097879796
 O      0.0888921418      0.0035783856     -0.3088510648
 C     -1.3101738943      0.0422903600     -0.0991520831
 H     -1.6753384997     -0.7274441331      0.5765326094
 H     -1.6390012330      0.9680011343      0.4219885813
 C     -2.0267967445     -0.0300441199     -1.4641658552
 H     -1.6488285342      0.7291847538     -2.1438220705
 H     -1.8533199270     -1.0176353120     -1.8880066417
 H     -3.0870718160      0.1788626794     -1.3780200540
15
# ORCA AIMD Position Step 30, t=15.00 fs, E_Pot=-229.29329267 Hartree, Unit is Angstrom
 H      2.6772466047      0.2990437273      1.8439991362
 C      2.2908800572      0.0977620282      0.8523078400
 H      2.6101544074      0.8925662987      0.1832946085
 H      2.5794418626     -0.8414381074      0.4625938471
 C      0.7482622432      0.1619299022      0.9831599289
 H      0.4473169150     -0.6401411799      1.6774180645
 H      0.4104587204      1.1333350293      1.4099986536
 O      0.0871130907      0.0048140228     -0.3094558477
 C     -1.3109099055      0.0413912328     -0.0990014761
 H     -1.6719715388     -0.7240687511      0.5717112685
 H     -1.6363251902      0.9748260781      0.4214478519
 C     -2.0295134716     -0.0285527456     -1.4651573843
 H     -1.6470896270      0.7242749178     -2.1485938855
 H     -1.8579854267     -1.0178722935     -1.8861044937
 H     -3.0895591765      0.1792069236     -1.3803197296
15
# ORCA AIMD Position Step 31, t=15.50 fs, E_Pot=-229.29267285 Hartree, Unit is Angstrom
 H      2.6702217454      0.3035872128      1.8440712754
 C      2.2880119378      0.1014429159      0.8552936810
 H      2.6066834182      0.8932573861      0.1883480063
 H      2.5798561696     -0.8326572623      0.4743193059
 C      0.7472835567      0.1653378861      0.9826320837
 H      0.4471656521     -0.6365514358      1.6820388112
 H      0.4064038936      1.1402318029      1.4101908332
 O      0.0855630985      0.0060118500     -0.3099203469
 C     -1.3119862524      0.0409046344     -0.0987905013
 H     -1.6685873179     -0.7233147169      0.5672249588