9
# ORCA AIMD Position Step 0, t=0.00 fs, E_Pot=-152.13387522 Hartree, Unit is Angstrom
 H      1.6237389891      0.1370800837      1.3005296653
 C      1.1465127853      0.0183024138      0.3262148898
 H      1.4990928841      0.8178281174     -0.3335322260
 H      1.4609104580     -0.9397328763     -0.1005675513
 O     -0.2710284980      0.0764101833      0.5322756597
 C     -0.9437183999     -0.0755356040     -0.7245700467
 H     -0.6816993748      0.7199297838     -1.4298367951
 H     -0.7199137364     -1.0376339707     -1.1969034846
 H     -2.0163951026     -0.0263481323     -0.5294101207
9
# ORCA AIMD Position Step 1, t=0.50 fs, E_Pot=-152.13358342 Hartree, Unit is Angstrom
 H      1.6280168373      0.1377443090      1.3029880722
 C      1.1437143076      0.0233496788      0.3294281179
 H      1.5044896341      0.8185625063     -0.3339033455
 H      1.4683264054     -0.9476196706     -0.0952050672
 O     -0.2750948062      0.0786771084      0.5301699095
 C     -0.9478797465     -0.0729491423     -0.7265681649
 H     -0.6808614400      0.7161492114     -1.4336070524
 H     -0.7161673909     -1.0411380707     -1.1987937261
 H     -2.0270437959     -0.0224759317     -0.5303087532
9
# ORCA AIMD Position Step 2, t=1.00 fs, E_Pot=-152.13282587 Hartree, Unit is Angstrom
 H      1.6319937172      0.1385365271      1.3053560649
 C      1.1409796481      0.0282794334      0.3325901901
 H      1.5097054553      0.8192246005     -0.3341592464
 H      1.4751959845     -0.9542977927     -0.0894297529
 O     -0.2791451744      0.0809482169      0.5280768991
 C     -0.9520549673     -0.0704384587     -0.7285686294
 H     -0.6800474848      0.7126365776     -1.4374942763
 H     -0.7127394953     -1.0440473708     -1.2003717511
 H     -2.0369643490     -0.0186704033     -0.5313777625
9
# ORCA AIMD Position Step 3, t=1.50 fs, E_Pot=-152.13187266 Hartree, Unit is Angstrom
 H      1.6353865659      0.1395814512      1.3075526042
 C      1.1383626247      0.0329984311      0.3356633521
 H      1.5145732421      0.8197485892     -0.3341926165
 H      1.4810456429     -0.9587686984     -0.0829204677
 O     -0.2831699514      0.0832306872      0.5260060945
 C     -0.9562581672     -0.0680657283     -0.7305758073
 H     -0.6792848812      0.7096214983     -1.4416013054
 H     -0.7099190120     -1.0458596829     -1.2013782783
 H     -2.0455390488     -0.0149862554     -0.5327688115
9
# ORCA AIMD Position Step 4, t=2.00 fs, E_Pot=-152.13102461 Hartree, Unit is Angstrom
 H      1.6379386047      0.1409990317      1.3095210400
 C      1.1359066197      0.0374356626      0.3386192001
 H      1.5189384538      0.8200844367     -0.3339092758
 H      1.4854952175     -0.9603062214     -0.0754764719
 O     -0.2871601113      0.0855315034      0.5239666773
 C     -0.9604927360     -0.0658774642     -0.7325942305
 H     -0.6786137433      0.7072772031     -1.4459889539
 H     -0.7079550066     -1.0462095573     -1.2016257703
 H     -2.0523077951     -0.0114680830     -0.5346002722
9
# ORCA AIMD Position Step 5, t=2.50 fs, E_Pot=-152.13050681 Hartree, Unit is Angstrom
 H      1.6394305593      0.1429033333      1.3112402094
 C      1.1336414635      0.0415450176      0.3414391804
 H      1.5226666307      0.8202063465     -0.3332361235
 H      1.4882782925     -0.9584950738     -0.0670257343
 O     -0.2911074010      0.0878573969      0.5219674423
 C     -0.9647489617     -0.0639005921     -0.7346290556
 H     -0.6780915916      0.7057039709     -1.4506623086
 H     -0.7070433659     -1.0448999958     -1.2010136067
 H     -2.0570052453     -0.0081481021     -0.5369495171
9
# ORCA AIMD Position Step 6, t=3.00 fs, E_Pot=-152.13040062 Hartree, Unit is Angstrom
 H      1.6396894395      0.1454012274      1.3127319830
 C      1.1315813137      0.0453061933      0.3441144741
 H      1.5256498310      0.8201191292     -0.3321277058
 H      1.4892541839     -0.9532467413     -0.0576240455
 O     -0.2950044063      0.0902147627      0.5200167025
 C     -0.9690031117     -0.0621406600     -0.7366861412
 H     -0.6777947597      0.7049226581     -1.4555656067
 H     -0.7073176779     -1.0419182767     -1.1995352099
 H     -2.0595792844     -0.0050447596     -0.5398488252
9
# ORCA AIMD Position Step 7, t=3.50 fs, E_Pot=-152.13062691 Hartree, Unit is Angstrom
 H      1.6385942340      0.1485906634      1.3140642292
 C      1.1297233947      0.0487247030      0.3466456722
 H      1.5278114603      0.8198617834     -0.3305707788
 H      1.4884143239     -0.9448017726     -0.0474490757
 O     -0.2988445577      0.0926095567      0.5181221787
 C     -0.9732179429     -0.0605820850     -0.7387715931
 H     -0.6778158385      0.7048789295     -1.4605868030
 H     -0.7088440532     -1.0374377469     -1.1972782038
 H     -2.0601924919     -0.0021619745     -0.5432845445
9
# ORCA AIMD Position Step 8, t=4.00 fs, E_Pot=-152.13098165 Hartree, Unit is Angstrom
 H      1.6360781337      0.1525583600      1.3153486224
 C      1.1280475973      0.0518312863      0.3490423796
 H      1.5291091024      0.8195078727     -0.3285864214
 H      1.4858838741     -0.9337211266     -0.0367905884
 O     -0.3026221104      0.0950471834      0.5162908565
 C     -0.9773446114     -0.0591902618     -0.7408908205
 H     -0.6782572167      0.7054569717     -1.4655711038
 H     -0.7116199763     -1.0318062778     -1.1944180620
 H     -2.0592071489      0.0005110460     -0.5471993718
9
# ORCA AIMD Position Step 9, t=4.50 fs, E_Pot=-152.13121611 Hartree, Unit is Angstrom
 H      1.6321271483      0.1573768592      1.3167331802
 C      1.1265171057      0.0546804067      0.3513226287
 H      1.5295350855      0.8191625484     -0.3262294419
 H      1.4819169751     -0.9208623669     -0.0260352787
 O     -0.3063321274      0.0975323924      0.5145288015
 C     -0.9813259625     -0.0579153504     -0.7430473311
 H     -0.6792215393      0.7065000513     -1.4703411393
 H     -0.7155777530     -1.0255205872     -1.1912049685
 H     -2.0571529688      0.0029992394     -0.5514978696
9
# ORCA AIMD Position Step 10, t=5.00 fs, E_Pot=-152.13114219 Hartree, Unit is Angstrom
 H      1.6267752522      0.1631010183      1.3183899130
 C      1.1250803664      0.0573469861      0.3535117667
 H      1.5291146683      0.8189563188     -0.3235850083
 H      1.4768818312     -0.9073306205     -0.0156426706
 O     -0.3099704899      0.1000691981      0.5128409370
 C     -0.9851011284     -0.0566975615     -0.7452415905
 H     -0.6808004614      0.7078345768     -1.4747205044
 H     -0.7205934034     -1.0191848191     -1.1879432487
 H     -2.0546763507      0.0053400225     -0.5560554177
9
# ORCA AIMD Position Step 11, t=5.50 fs, E_Pot=-152.13072829 Hartree, Unit is Angstrom
 H      1.6200965247      0.1697641831      1.3204985258
 C      1.1236747551      0.0599202525      0.3556403828
 H      1.5279019161      0.8190359149     -0.3207626172
 H      1.4712307976     -0.8943915709     -0.0061078447
 O     -0.3135339361      0.1026608298      0.5112307990
 C     -0.9886112119     -0.0554737072     -0.7474702684
 H     -0.6830633073      0.7092943320     -1.4785572383
 H     -0.7265015546     -1.0134525152     -1.1849631437
 H     -2.0524714803      0.0075801866     -0.5607305222
9
# ORCA AIMD Position Step 12, t=6.00 fs, E_Pot=-152.13013812 Hartree, Unit is Angstrom
 H      1.6121951125      0.1773744480      1.3232276906
 C      1.1222321187      0.0624938606      0.3577409361
 H      1.5259735414      0.8195528334     -0.3178876890
 H      1.4654522128     -0.8833377178      0.0020914330
 O     -0.3170201182      0.1053097105      0.5097002974
 C     -0.9918055917     -0.0541846223     -0.7497260894
 H     -0.6860471666      0.7107420504     -1.4817442527
 H     -0.7331157918     -1.0089539787     -1.1825861100
 H     -2.0511974495      0.0097712640     -0.5653796944
9
# ORCA AIMD Position Step 13, t=6.50 fs, E_Pot=-152.12967290 Hartree, Unit is Angstrom
 H      1.6031941854      0.1859115023      1.3267158519
 C      1.1206858740      0.0651525789      0.3598431510
 H      1.5234211949      0.8206503246     -0.3150912389
 H      1.4600061430     -0.8753130116      0.0085604054
 O     -0.3204276487      0.1080174508      0.5082495173
 C     -0.9946480866     -0.0527827631     -0.7519983323
 H     -0.6897496683      0.7120861885     -1.4842344717
 H     -0.7402521214     -1.0062158162     -1.1810870711
 H     -2.0513910108      0.0119637671     -0.5698731247
9
# ORCA AIMD Position Step 14, t=7.00 fs, E_Pot=-152.12962220 Hartree, Unit is Angstrom
 H      1.5932252475      0.1953245405      1.3310536987
 C      1.1189785872      0.0679577381      0.3619689183
 H      1.5203428867      0.8224496942     -0.3124982350
 H      1.4552548227     -0.8711236395      0.0130550716
 O     -0.3237561110      0.1107848384      0.5068765947
 C     -0.9971219958     -0.0512389507     -0.7542738389
 H     -0.6941253009      0.7132913976     -1.4860492193
 H     -0.7477513379     -1.0055847119     -1.1806593472
 H     -2.0533894980      0.0142012600     -0.5741085335
9
# ORCA AIMD Position Step 15, t=7.50 fs, E_Pot=-152.13009700 Hartree, Unit is Angstrom
 H      1.5824190921      0.2055316036      1.3362702790
 C      1.1170683117      0.0709354398      0.3641280794
 H      1.5168343438      0.8250368884     -0.3102154432
 H      1.4514061619     -0.8710839125      0.0155342200
 O     -0.3270060204      0.1136118069      0.5055776871
 C     -0.9992330325     -0.0495470171     -0.7565382636
 H     -0.6990857686      0.7143816887     -1.4872790214
 H     -0.7554952424     -1.0071706275     -1.1813891335
 H     -2.0572799160      0.0165155606     -0.5780204200
9
# ORCA AIMD Position Step 16, t=8.00 fs, E_Pot=-152.13095230 Hartree, Unit is Angstrom
 H      1.5708993436      0.2164205729      1.3423243484
 C      1.1149319754      0.0740717564      0.3663165577
 H      1.5129811668      0.8284505228     -0.3083198201
 H      1.4484887605     -0.8749487282      0.0161778747
 O     -0.3301787509      0.1164973857      0.5043470466
 C     -1.0010094755     -0.0477252566     -0.7587772951
 H     -0.7045045413      0.7154357081     -1.4880764683
 H     -0.7634127204     -1.0108230354     -1.1832453079
 H     -2.0628861692      0.0189242242     -0.5815827867
9
# ORCA AIMD Position Step 17, t=8.50 fs, E_Pot=-152.13185647 Hartree, Unit is Angstrom
 H      1.5587790457      0.2278519170      1.3491020787
 C      1.1125650104      0.0773169835      0.3685175608
 H      1.5088526307      0.8326728402     -0.3068488285
 H      1.4463664876     -0.8819583164      0.0153641038
 O     -0.3332764647      0.1194396536      0.5031771869
 C     -1.0024994164     -0.0458141430     -0.7609776891
 H     -0.7102253949      0.7165740638     -1.4886412816
 H     -0.7714745847     -1.0161468529     -1.1860869543
 H     -2.0697975401      0.0214308151     -0.5848050808
9
# ORCA AIMD Position Step 18, t=9.00 fs, E_Pot=-152.13246099 Hartree, Unit is Angstrom
 H      1.5461602730      0.2396631601      1.3564217227
 C      1.1099777676      0.0805974615      0.3707053688
 H      1.5044978849      0.8376252728     -0.3057942432
 H      1.4447852447     -0.8909789111      0.0136113119
 O     -0.3363020847      0.1224357271      0.5020591273
 C     -1.0037655913     -0.0438705994     -0.7631281082
 H     -0.7160742992      0.7179394480     -1.4891984620
 H     -0.7796795327     -1.0225548024     -1.1896865349
 H     -2.0774313317      0.0240276318     -0.5877228476
9
# ORCA AIMD Position Step 19, t=9.50 fs, E_Pot=-152.13256189 Hartree, Unit is Angstrom
 H      1.5331363590      0.2516748771      1.3640451610
 C      1.1071901963      0.0838308308      0.3728503233
 H      1.4999450800      0.8431700202     -0.3051008570
 H      1.4434341008     -0.9006913537      0.0115041814
 O     -0.3392593318      0.1254818107      0.5009826961
 C     -1.0048787256     -0.0419598806     -0.7652198615
 H     -0.7218734533      0.7196714566     -1.4899714590
 H     -0.7880358691     -1.0293443095     -1.1937630745
 H     -2.0851153960      0.0266999372     -0.5903856664
9
# ORCA AIMD Position Step 20, t=10.00 fs, E_Pot=-152.13216974 Hartree, Unit is Angstrom
 H      1.5197960622      0.2636978213      1.3716954287
 C      1.1042263483      0.0869403130      0.3749235498
 H      1.4952035725      0.8491182061     -0.3046708569
 H      1.4420029595     -0.9097755618      0.0096224559
 O     -0.3421528243      0.1285733119      0.4999368726
 C     -1.0059104751     -0.0401465635     -0.7672476113
 H     -0.7274557395      0.7218793391     -1.4911535656
 H     -0.7965438935     -1.0357832200     -1.1980184241
 H     -2.0921745140      0.0294306021     -0.5928449980
9
# ORCA AIMD Position Step 21, t=10.50 fs, E_Pot=-152.13147555 Hartree, Unit is Angstrom
 H      1.5062288184      0.2755406528      1.3790784959
 C      1.1011097104      0.0898652397      0.3769005034
 H      1.4902688877      0.8552439877     -0.3043736502
 H      1.4402263041     -0.9170570856      0.0084848264
 O     -0.3449882088      0.1317050003      0.4989101488
 C     -1.0069269196     -0.0384861262     -0.7692099775
 H     -0.7326775722      0.7246170073     -1.4928817830
 H     -0.8051823758     -1.0411902310     -1.2021707076
 H     -2.0980077077      0.0322043339     -0.5951438647
9
# ORCA AIMD Position Step 22, t=11.00 fs, E_Pot=-152.13075312 Hartree, Unit is Angstrom
 H      1.4925301618      0.2870177231      1.3859070262
 C      1.0978597164      0.0925671420      0.3787631266
 H      1.4851296738      0.8613029300     -0.3040599215
 H      1.4379108921     -0.9216056437      0.0085114303
 O     -0.3477722842      0.1348711799      0.4978908893
 C     -1.0079832686     -0.0370182428     -0.7711098398
 H     -0.7374282754      0.7278649270     -1.4952176468
 H     -0.8139004777     -1.0450009079     -1.2059813878
 H     -2.1021489834      0.0350110826     -0.5973093112
9
# ORCA AIMD Position Step 23, t=11.50 fs, E_Pot=-152.13024981 Hartree, Unit is Angstrom
 H      1.4788064502      0.2979564817      1.3919237309
 C      1.0944893628      0.0950321491      0.3805008754
 H      1.4797756044      0.8670523828     -0.3035780327
 H      1.4349504369     -0.9227919847      0.0100024215
 O     -0.3505130854      0.1380658409      0.4968676690
 C     -1.0091201107     -0.0357624205     -0.7729540880
 H     -0.7416347547      0.7315226668     -1.4981386120
 H     -0.8226148246     -1.0468156170     -1.2092747264
 H     -2.1043090544      0.0378485559     -0.5993478028
9
# ORCA AIMD Position Step 24, t=12.00 fs, E_Pot=-152.13010362 Hartree, Unit is Angstrom
 H      1.4651781918      0.3082042323      1.3969222569
 C      1.0910036945      0.0972709699      0.3821110284
 H      1.4742051511      0.8722716054     -0.3027907170
 H      1.4313318259     -0.9203156194      0.0131278097
 O     -0.3532199029      0.1412827720      0.4958295741
 C     -1.0103612775     -0.0347161233     -0.7747526670
 H     -0.7452611722      0.7354139336     -1.5015416471
 H     -0.8312106274     -1.0464295658     -1.2119499591
 H     -2.1043986988      0.0407239277     -0.6012432920
9
# ORCA AIMD Position Step 25, t=12.50 fs, E_Pot=-152.13030487 Hartree, Unit is Angstrom
 H      1.4517814981      0.3176341021      1.4007640843
 C      1.0873989474      0.0993175809      0.3835986282
 H      1.4684323080      0.8767797895     -0.3015902739
 H      1.4271365612     -0.9142145699      0.0179243242
 O     -0.3559032301      0.1445156326      0.4947664543
 C     -1.0117132492     -0.0338551870     -0.7765169427
 H     -0.7483042643      0.7393034664     -1.5052582680
 H     -0.8395456980     -1.0438466929     -1.2139870259
 H     -2.1025353227      0.0436547937     -0.6029576166
9
# ORCA AIMD Position Step 26, t=13.00 fs, E_Pot=-152.13070699 Hartree, Unit is Angstrom
 H      1.4387674176      0.3261501359      1.4033904459
 C      1.0836622435      0.1012272471      0.3849762313
 H      1.4624916123      0.8804506823     -0.2999109430
 H      1.4225391829     -0.9048628873      0.0242970956
 O     -0.3585746417      0.1477580001      0.4936691239
 C     -1.0131660046     -0.0331361645     -0.7782576190
 H     -0.7507855856      0.7429229634     -1.5090781483
 H     -0.8474565703     -1.0392787506     -1.2154464066
 H     -2.0990336198      0.0466692744     -0.6044330466
9
# ORCA AIMD Position Step 27, t=13.50 fs, E_Pot=-152.13108263 Hartree, Unit is Angstrom
 H      1.4262991122      0.3336913822      1.4048286566
 C      1.0797718740      0.1030738881      0.3862634279
 H      1.4564410584      0.8832229704     -0.2977375948
 H      1.4178022057     -0.8929548624      0.0320264972
 O     -0.3612466138      0.1510034157      0.4925295140
 C     -1.0146952638     -0.0325002385     -0.7799825797
 H     -0.7527421751      0.7460019247     -1.5127772781
 H     -0.8547663853     -1.0331294692     -1.2164629001
 H     -2.0943799658      0.0498049839     -0.6055970383
9
# ORCA AIMD Position Step 28, t=14.00 fs, E_Pot=-152.13121335 Hartree, Unit is Angstrom
 H      1.4145470084      0.3402347190      1.4051924341
 C      1.0756983686      0.1049462320      0.3874859053
 H      1.4503627046      0.8851058639     -0.2951102158
 H      1.4132649695     -0.8794683041      0.0407828399
 O     -0.3639323013      0.1542454511      0.4913407818
 C     -1.0162661107     -0.0318784245     -0.7816950715
 H     -0.7542169887      0.7482990756     -1.5161465571
 H     -0.8612945145     -1.0259622801     -1.2172325169
 H     -2.0891894736      0.0531064551     -0.6063694127
9
# ORCA AIMD Position Step 29, t=14.50 fs, E_Pot=-152.13098833 Hartree, Unit is Angstrom
 H      1.4036821896      0.3457960374      1.4046758627
 C      1.0714066779      0.1069418214      0.3886737083
 H      1.4443609005      0.8861794337     -0.2921238621
 H      1.4093222188     -0.8655949101      0.0501529953
 O     -0.3666452914      0.1574778090      0.4900973846
 C     -1.0178379232     -0.0311978691     -0.7833925929
 H     -0.7552501073      0.7496306375     -1.5190174238
 H     -0.8668679321     -1.0184498076     -1.2179915009
 H     -2.0841454609      0.0566206477     -0.6066721256
9
# ORCA AIMD Position Step 30, t=15.00 fs, E_Pot=-152.13047224 Hartree, Unit is Angstrom
 H      1.3938683949      0.3504293075      1.4035407050
 C      1.0668598315      0.1091579922      0.3898584062
 H      1.4385581373      0.8865892961     -0.2889238456
 H      1.4063880446     -0.8526265869      0.0596823195
 O     -0.3693993481      0.1606944582      0.4887951291
 C     -1.0193703314     -0.0303890002     -0.7850667194
 H     -0.7558714003      0.7498926690     -1.5212821310
 H     -0.8713340750     -1.0113051501     -1.2189872725
 H     -2.0799240281      0.0603904568     -0.6064414082
9
# ORCA AIMD Position Step 31, t=15.50 fs, E_Pot=-152.12989732 Hartree, Unit is Angstrom
 H      1.3852530159      0.3542230752      1.4020969093
 C      1.0620242430      0.1116797323      0.3910691885
 H      1.4330885510      0.8865353026     -0.2856959927
 H      1.4048433542     -0.8417961790      0.0689313063
 O     -0.3722081613      0.1638897860      0.4874312062
 C     -1.0208295802     -0.0293930627     -0.7867039154
 H     -0.7560951214      0.7490756016     -1.5229071846
 H     -0.8745743688     -1.0051992078     -1.2204429797
 H     -2.0771111970      0.0644467176     -0.6056413083
9
# ORCA AIMD Position Step 32, t=16.00 fs, E_Pot=-152.12956018 Hartree, Unit is Angstrom
 H      1.3779574633      0.3572941238      1.4006765286
 C      1.0568763263      0.1145659318      0.3923284965
 H      1.4280891509      0.8862541185     -0.2826519519
 H      1.4049711798     -0.8340906069      0.0775392341
 O     -0.3750851077      0.1670587471      0.4860042274
 C     -1.0221943147     -0.0281692008     -0.7882871821
 H     -0.7559168542      0.7472697344     -1.5239390449
 H     -0.8765169236     -1.0006741478     -1.2225200364
 H     -2.0761250243      0.0687999338     -0.6042767370
9
# ORCA AIMD Position Step 33, t=16.50 fs, E_Pot=-152.12966299 Hartree, Unit is Angstrom
 H      1.3720672596      0.3597784311      1.3996020306
 C      1.0514093477      0.1178374149      0.3936483978
 H      1.4236889509      0.8859961061     -0.2800098791
 H      1.4068926070     -0.8300775655      0.0852795478
 O     -0.3780430249      0.1701969849      0.4845142754
 C     -1.0234596392     -0.0266999033     -0.7897982324
 H     -0.7553132394      0.7446608547     -1.5245014676
 H     -0.8771463776     -0.9980681797     -1.2252854934
 H     -2.0771576820      0.0734335442     -0.6024034092
9
# ORCA AIMD Position Step 34, t=17.00 fs, E_Pot=-152.13019322 Hartree, Unit is Angstrom
 H      1.3676223250      0.3618201514      1.3991512849
 C      1.0456388550      0.1214710097      0.3950290719
 H      1.4199964575      0.8859979180     -0.2779715177
 H      1.4105221130     -0.8297985012      0.0920894086
 O     -0.3810940035      0.1733009200      0.4829629746
 C     -1.0246384979     -0.0249935573     -0.7912198188
 H     -0.7542448950      0.7415155039     -1.5247840242
 H     -0.8765088519     -0.9974679877     -1.2286918298
 H     -2.0801503836      0.0783005867     -0.6001320730
9
# ORCA AIMD Position Step 35, t=17.50 fs, E_Pot=-152.13092505 Hartree, Unit is Angstrom
 H      1.3646082651      0.3635600280      1.3995232464
 C      1.0396051047      0.1254025499      0.3964601402
 H      1.4170864806      0.8864536139     -0.2766977692
 H      1.4155587660     -0.8327661771      0.0980629581
 O     -0.3842492039      0.1763678144      0.4813535713
 C     -1.0257599851     -0.0230832413     -0.7925379068
 H     -0.7526627711      0.7381560250     -1.5250217151
 H     -0.8747106584     -0.9987003719     -1.2325747287
 H     -2.0848069903      0.0833249344     -0.5976253871
9
# ORCA AIMD Position Step 36, t=18.00 fs, E_Pot=-152.13154167 Hartree, Unit is Angstrom
 H      1.3629499467      0.3651251242      1.4008099032
 C      1.0333717793      0.1295383982      0.3979243843
 H      1.4149879127      0.8874885455     -0.2762860584
 H      1.4215179156     -0.8380674837      0.1034117382
 O     -0.3875187090      0.1793958301      0.4796910069
 C     -1.0268649291     -0.0210216931     -0.7937435369
 H     -0.7505177820      0.7349267184     -1.5254665058
 H     -0.8719106503     -1.0013649349     -1.2366699409
 H     -2.0906426907      0.0884070623     -0.5950875216
9
# ORCA AIMD Position Step 37, t=18.50 fs, E_Pot=-152.13179421 Hartree, Unit is Angstrom
 H      1.3625089580      0.3666217365      1.4029803915
 C      1.0270214780      0.1337718102      0.3994024266
 H      1.4136746521      0.8891409154     -0.2767535486
 H      1.4277933555     -0.8445340141      0.1084076075
 O     -0.3909114249      0.1823840913      0.4779819666
 C     -1.0279996913     -0.0188733230     -0.7948343566
 H     -0.7477729337      0.7321542303     -1.5263531878
 H     -0.8683074777     -1.0048990985     -1.2406453247
 H     -2.0970562879      0.0934331090     -0.5927482898
9
# ORCA AIMD Position Step 38, t=19.00 fs, E_Pot=-152.13160377 Hartree, Unit is Angstrom
 H      1.3630863712      0.3681327100      1.4058815838
 C      1.0206492200      0.1379992616      0.4008768103
 H      1.4130618493      0.8913551257     -0.2780299344
 H      1.4337315748     -0.8509275623      0.1133262471
 O     -0.3944350291      0.1853327584      0.4762348938
 C     -1.0292093886     -0.0167048377     -0.7958158146
 H     -0.7444163879      0.7301073365     -1.5278639199
 H     -0.8641239420     -1.0086600420     -1.2441408467
 H     -2.1034112991      0.0982853542     -0.5908446675
9
# ORCA AIMD Position Step 39, t=19.50 fs, E_Pot=-152.13106905 Hartree, Unit is Angstrom
 H      1.3644314822      0.3697192794      1.4092561188
 C      1.0143552505      0.1421330444      0.4023345427
 H      1.4130089485      0.8939887472     -0.2799619227
 H      1.4387010477     -0.8560986992      0.1184035313
 O     -0.3980959520      0.1882431051      0.4744599655
 C     -1.0305316456     -0.0145762364     -0.7967018971
 H     -0.7404732457      0.7289626843     -1.5300974188
 H     -0.8595907996     -1.0120075175     -1.2468088879
 H     -2.1091126092      0.1028523060     -0.5896026348
9
# ORCA AIMD Position Step 40, t=20.00 fs, E_Pot=-152.13040180 Hartree, Unit is Angstrom
 H      1.3662560812      0.3714264672      1.4127749998
 C      1.0082380268      0.1461087158      0.4037679798
 H      1.4133297019      0.8968319456     -0.2823290453
 H      1.4421468924     -0.8590997720      0.1238085365
 O     -0.4018993665      0.1911175798      0.4726690335
 C     -1.0319916653     -0.0125336234     -0.7975151578
 H     -0.7360136102      0.7287829087     -1.5330490417
 H     -0.8549318449     -1.0143756734     -1.2483491281
 H     -2.1136698928      0.1070371601     -0.5892215669
9
# ORCA AIMD Position Step 41, t=20.50 fs, E_Pot=-152.12983558 Hartree, Unit is Angstrom
 H      1.3682527513      0.3732904157      1.4160790666
 C      1.0023878218      0.1498879249      0.4051744907
 H      1.4138079191      0.8996356685     -0.2848681111
 H      1.4436289634     -0.8592535714      0.1296308386
 O     -0.4058491609      0.1939598383      0.4708755399
 C     -1.0335990297     -0.0106046705     -0.7982857829
 H     -0.7311549173      0.7295114106     -1.5366063552
 H     -0.8503512702     -1.0153279560     -1.2485351181
 H     -2.1167438856      0.1107641016     -0.5898623987
9
# ORCA AIMD Position Step 42, t=21.00 fs, E_Pot=-152.12954483 Hartree, Unit is Angstrom
 H      1.3701150793      0.3753459556      1.4188227403
 C      0.9968810951      0.1534580951      0.4065555022
 H      1.4142167089      0.9021436892     -0.2873022507
 H      1.4428461671     -0.8561889087      0.1358774141
 O     -0.4099478811      0.1967747382      0.4690944095
 C     -1.0353463246     -0.0087968785     -0.7990495873
 H     -0.7260575790      0.7309845272     -1.5405615224
 H     -0.8460235630     -1.0145941031     -1.2472320301
 H     -2.1181750771      0.1139824331     -0.5916399112
9
# ORCA AIMD Position Step 43, t=21.50 fs, E_Pot=-152.12959355 Hartree, Unit is Angstrom
 H      1.3715576163      0.3776330745      1.4207143098
 C      0.9917756939      0.1568305002      0.4079154204
 H      1.4143386543      0.9041238638     -0.2893704303
 H      1.4396511059     -0.8498554996      0.1424748756
 O     -0.4141966442      0.1995682998      0.4673419207
 C     -1.0372094822     -0.0070982639     -0.7998450937
 H     -0.7209143312      0.7329581189     -1.5446381230
 H     -0.8420857827     -1.0120909080     -1.2444063464
 H     -2.1179959017      0.1166687326     -0.5946189908
9
# ORCA AIMD Position Step 44, t=22.00 fs, E_Pot=-152.12992029 Hartree, Unit is Angstrom
 H      1.3723338029      0.3802014667      1.4215488426
 C      0.9871069751      0.1600377969      0.4092607147
 H      1.4139846535      0.9053951757     -0.2908541834
 H      1.4340580108     -0.8405264770      0.1492744602
 O     -0.4185950430      0.2023476417      0.4656355435
 C     -1.0391496615     -0.0054798406     -0.8007100758
 H     -0.7159348451      0.7351430871     -1.5485272645
 H     -0.8386320236     -1.0079288097     -1.2401284168
 H     -2.1164273594      0.1188271942     -0.5988145824
9
# ORCA AIMD Position Step 45, t=22.50 fs, E_Pot=-152.13036107 Hartree, Unit is Angstrom
 H      1.3722505835      0.3831128132      1.4212316088
 C      0.9828850540      0.1631313901      0.4105992400
 H      1.4130097663      0.9058485947     -0.2915995175
 H      1.4262444405     -0.8287905086      0.1560591593
 O     -0.4231410721      0.2051209028      0.4639937320
 C     -1.0411164931     -0.0038992844     -0.8016780698
 H     -0.7113277727      0.7372437032     -1.5519268573
 H     -0.8357101622     -1.0024052160     -1.2345682795
 H     -2.1138600205      0.1204881124     -0.6041951618
9
# ORCA AIMD Position Step 46, t=23.00 fs, E_Pot=-152.13070852 Hartree, Unit is Angstrom
 H      1.3711788537      0.3864407351      1.4197911462
 C      0.9790935573      0.1661783179      0.4119397013
 H      1.4113250078      0.9054609150     -0.2915329516
 H      1.4165442526     -0.8155286416      0.1625541770
 O     -0.4278311131      0.2078971600      0.4624356552
 C     -1.0430525499     -0.0023053809     -0.8027753483
 H     -0.7072824187      0.7389935842     -1.5545786269
 H     -0.8333214407     -0.9959837460     -1.2279844138
 H     -2.1108185411      0.1217043062     -0.6106896553
9
# ORCA AIMD Position Step 47, t=23.50 fs, E_Pot=-152.13079682 Hartree, Unit is Angstrom
 H      1.3690591172      0.3902685100      1.4173816279
 C      0.9756904198      0.1692567815      0.4132910441
 H      1.4089044411      0.9043013267     -0.2906711649
 H      1.4054268174     -0.8018651139      0.1684432383
 O     -0.4326600084      0.2106863437      0.4609808571
 C     -1.0448988734     -0.0006431062     -0.8040187570
 H     -0.7039518573      0.7401858929     -1.5562990633
 H     -0.8314238487     -0.9892573468     -1.2207047150
 H     -2.1079091268      0.1225452831     -0.6181976018
9
# ORCA AIMD Position Step 48, t=24.00 fs, E_Pot=-152.13058552 Hartree, Unit is Angstrom
 H      1.3659018295      0.3946846903      1.4142742610
 C      0.9726113002      0.1724492069      0.4146615058
 H      1.4057871188      0.9025305685     -0.2891237939
 H      1.3934566821     -0.7890787614      0.1733937361
 O     -0.4376212297      0.2134991474      0.4596488403
 C     -1.0466012319      0.0011406587     -0.8054146702
 H     -0.7014388312      0.7406959757     -1.5570022008
 H     -0.8299403355     -0.9828934850     -1.2130993881
 H     -2.1057515397      0.1230892552     -0.6266018555
9
# ORCA AIMD Position Step 49, t=24.50 fs, E_Pot=-152.13019899 Hartree, Unit is Angstrom
 H      1.3617820173      0.3997767951      1.4108373988
 C      0.9697759305      0.1758320842      0.4160571307
 H      1.4020734888      0.9003923032     -0.2870886784
 H      1.3812307126     -0.7784659625      0.1770925732
 O     -0.4427071122      0.2163469151      0.4584585757
 C     -1.0481165162      0.0030908344     -0.8069591649