9
# ORCA AIMD Position Step 0, t=0.00 fs, E_Pot=-471.47626546 Hartree, Unit is Angstrom
 C      1.7669537951      0.0101010382      0.1749741379
 C      0.3825726038      0.6663449850      0.3612285964
 S     -0.9863770253     -0.2861772189     -0.3256520124
 H      1.8140585907     -0.9475611155      0.6859244124
 H      2.5450610667      0.6494014487      0.5831308295
 H      1.9778506886     -0.1558894606     -0.8773562625
 H      0.3781434647      1.6318021743     -0.1394195119
 H      0.2200746103      0.8595477173      1.4207363203
 H     -0.8069377619     -1.3473695637      0.4566335009
9
# ORCA AIMD Position Step 1, t=0.50 fs, E_Pot=-471.47584717 Hartree, Unit is Angstrom
 C      1.7693085838      0.0097902106      0.1758591772
 C      0.3819650250      0.6713601844      0.3662881790
 S     -0.9846944666     -0.2864563985     -0.3259009360
 H      1.8261022131     -0.9585655533      0.6936459821
 H      2.5364190453      0.6564651464      0.5783438336
 H      1.9699549419     -0.1484388969     -0.8811020410
 H      0.3820398090      1.6258835477     -0.1430094107
 H      0.2275732022      0.8539715190      1.4194749381
 H     -0.8172683211     -1.3438097546      0.4566002881
9
# ORCA AIMD Position Step 2, t=1.00 fs, E_Pot=-471.47474951 Hartree, Unit is Angstrom
 C      1.7715934170      0.0093928556      0.1767631918
 C      0.3813979085      0.6762319023      0.3712640647
 S     -0.9830151762     -0.2867188897     -0.3261550727
 H      1.8379940751     -0.9682880521      0.7006456161
 H      2.5283874533      0.6637606011      0.5737844532
 H      1.9621675348     -0.1411191452     -0.8846405306
 H      0.3858728339      1.6206109903     -0.1466493117
 H      0.2347688074      0.8488081238      1.4191131194
 H     -0.8274508265     -1.3405460609      0.4568555017
9
# ORCA AIMD Position Step 3, t=1.50 fs, E_Pot=-471.47334506 Hartree, Unit is Angstrom
 C      1.7737499521      0.0088415102      0.1777000776
 C      0.3809065994      0.6808356610      0.3760855456
 S     -0.9813395983     -0.2869498210     -0.3264192769
 H      1.8495960128     -0.9756725320      0.7063267541
 H      2.5214935272      0.6714890835      0.5696413381
 H      1.9545843480     -0.1340485821     -0.8877741015
 H      0.3895905036      1.6165453084     -0.1503748535
 H      0.2413988826      0.8444270763      1.4204648085
 H     -0.8373686814     -1.3378344228      0.4576615080
9
# ORCA AIMD Position Step 4, t=2.00 fs, E_Pot=-471.47205475 Hartree, Unit is Angstrom
 C      1.7757323549      0.0080989195      0.1786778792
 C      0.3805207488      0.6850666416      0.3806959979
 S     -0.9796677670     -0.2871367574     -0.3266970310
 H      1.8607782296     -0.9799529004      0.7102512617
 H      2.5161329130      0.6797602706      0.5660394289
 H      1.9473001134     -0.1273434796     -0.8903265114
 H      0.3931475213      1.6141088419     -0.1541721254
 H      0.2472485664      0.8411371461      1.4241317019
 H     -0.8469258269     -1.3358664922      0.4592313391
9
# ORCA AIMD Position Step 5, t=2.50 fs, E_Pot=-471.47117747 Hartree, Unit is Angstrom
 C      1.7775103384      0.0071644927      0.1796998961
 C      0.3802633183      0.6888458185      0.3850599285
 S     -0.9779993022     -0.2872706022     -0.3269898479
 H      1.8714280017     -0.9806955800      0.7121634517
 H      2.5125274233      0.6885538883      0.5630193738
 H      1.9404076540     -0.1211168294     -0.8921585386
 H      0.3965045784      1.6135376948     -0.1579533129
 H      0.2521641089      0.8391676447      1.4303961872
 H     -0.8560491463     -1.3347445566      0.4617077997
9
# ORCA AIMD Position Step 6, t=3.00 fs, E_Pot=-471.47078494 Hartree, Unit is Angstrom
 C      1.7790698940      0.0060768862      0.1807654487
 C      0.3801504299      0.6921228326      0.3891667123
 S     -0.9763334668     -0.2873461422     -0.3272968756
 H      1.8814571720     -0.9778164971      0.7120003253
 H      2.5107097723      0.6977026590      0.5605314450
 H      1.9339964919     -0.1154768178     -0.8931802281
 H      0.3996269522      1.6148598961     -0.1615448750
 H      0.2560574815      0.8386596701      1.4391644231
 H     -0.8646882330     -1.3344664718      0.4651499313
9
# ORCA AIMD Position Step 7, t=3.50 fs, E_Pot=-471.47072338 Hartree, Unit is Angstrom
 C      1.7804115301      0.0049129535      0.1818696920
 C      0.3801919489      0.6948753889      0.3930299538
 S     -0.9746692588     -0.2873621524     -0.3276147722
 H      1.8908087420     -0.9715812929      0.7098929383
 H      2.5105378187      0.7069018451      0.5584453192
 H      1.9281508025     -0.1105247427     -0.8933586104
 H      0.4024832048      1.6179027950     -0.1646920686
 H      0.2589021609      0.8396671595      1.4499763235
 H     -0.8728128874     -1.3349232198      0.4695289920
9
# ORCA AIMD Position Step 8, t=4.00 fs, E_Pot=-471.47071196 Hartree, Unit is Angstrom
 C      1.7815464971      0.0037833134      0.1830025836
 C      0.3803925055      0.6971057235      0.3966827949
 S     -0.9730055061     -0.2873210542     -0.3279378711
 H      1.8994624593     -0.9625906252      0.7061599134
 H      2.5117335897      0.7157438189      0.5565729501
 H      1.9229468127     -0.1063523491     -0.8927204031
 H      0.4050445738      1.6223266184     -0.1670794939
 H      0.2607224228      0.8421653902      1.4620789482
 H     -0.8804091009     -1.3359095417      0.4747345206
9
# ORCA AIMD Position Step 9, t=4.50 fs, E_Pot=-471.47048690 Hartree, Unit is Angstrom
 C      1.7824920334      0.0028246723      0.1841477371
 C      0.3807526001      0.6988351461      0.4001707153
 S     -0.9713409623     -0.2872281835     -0.3282586002
 H      1.9074385819     -0.9517450915      0.7012899914
 H      2.5139371215      0.7237701502      0.5546986084
 H      1.9184495371     -0.1030386342     -0.8913496764
 H      0.4072853340      1.6276764777     -0.1683636437
 H      0.2615795651      0.8460637476      1.4745420716
 H     -0.8874739431     -1.3371461286      0.4805887520
9
# ORCA AIMD Position Step 10, t=5.00 fs, E_Pot=-471.46993009 Hartree, Unit is Angstrom
 C      1.7832665349      0.0021891055      0.1852822421
 C      0.3812695975      0.7000978811      0.4035436870
 S     -0.9696742806     -0.2870908343     -0.3285681314
 H      1.9147966276     -0.9401797785      0.6959075636
 H      2.5167646834      0.7305298854      0.5526107101
 H      1.9147103833     -0.1006471487     -0.8893811189
 H      0.4091836482      1.6334414464     -0.1682099518
 H      0.2615583186      0.8512198056      1.4863850753
 H     -0.8940122132     -1.3383083334      0.4868692322
9
# ORCA AIMD Position Step 11, t=5.50 fs, E_Pot=-471.46913448 Hartree, Unit is Angstrom
 C      1.7838860225      0.0020299175      0.1863784343
 C      0.3819384022      0.7009350200      0.4068493285
 S     -0.9680040252     -0.2869171619     -0.3288570877
 H      1.9216274429     -0.9291562633      0.6907145448
 H      2.5198616407      0.7356353458      0.5501290348
 H      1.9117640252     -0.0992232186     -0.8869891774
 H      0.4107229151      1.6391132934     -0.1663294088
 H      0.2607550378      0.8574531182      1.4966932876
 H     -0.9000324576     -1.3390590559      0.4933328467
9
# ORCA AIMD Position Step 12, t=6.00 fs, E_Pot=-471.46837791 Hartree, Unit is Angstrom
 C      1.7843623036      0.0024845622      0.1874080815
 C      0.3827518925      0.7013892573      0.4101277246
 S     -0.9663286319     -0.2867151268     -0.3291162709
 H      1.9280350531     -0.9199089538      0.6864064890
 H      2.5229452520      0.7388078453      0.5471254924
 H      1.9096259823     -0.0987920387     -0.8843738316
 H      0.4118929000      1.6442373534     -0.1625091583
 H      0.2592683823      0.8645578966      1.5047086151
 H     -0.9055445205     -1.3390803109      0.4997404826
9
# ORCA AIMD Position Step 13, t=6.50 fs, E_Pot=-471.46800348 Hartree, Unit is Angstrom
 C      1.7847029881      0.0036560829      0.1883484151
 C      0.3837011876      0.7015006686      0.4134079696
 S     -0.9646463649     -0.2864915716     -0.3293373188
 H      1.9341087619     -0.9134597755      0.6835708718
 H      2.5258352640      0.7399100110      0.5435374476
 H      1.9082907156     -0.0993575768     -0.8817435138
 H      0.4126904291      1.6484523686     -0.1566349191
 H      0.2571921842      0.8723143290      1.5098916988
 H     -0.9105581438     -1.3381007191      0.5058792397
9
# ORCA AIMD Position Step 14, t=7.00 fs, E_Pot=-471.46824832 Hartree, Unit is Angstrom
 C      1.7849128875      0.0055963329      0.1891882557
 C      0.3847758476      0.7013035813      0.4167061032
 S     -0.9629552885     -0.2862514951     -0.3295132470
 H      1.9398907734     -0.9104386268      0.6825885446
 H      2.5284721168      0.7389634665      0.5393739702
 H      1.9077302593     -0.1009021647     -0.8792957684
 H      0.4131195752      1.6515183642     -0.1487047800
 H      0.2546099510      0.8804985898      1.5119589788
 H     -0.9150824585     -1.3359171278      0.5115806304
9
# ORCA AIMD Position Step 15, t=7.50 fs, E_Pot=-471.46910754 Hartree, Unit is Angstrom
 C      1.7849958927      0.0082953982      0.1899318243
 C      0.3859640933      0.7008244777      0.4200240584
 S     -0.9612532636     -0.2859975498     -0.3296388567
 H      1.9453494127     -0.9109618063      0.6835674012
 H      2.5309229041      0.7361515193      0.5347156025
 H      1.9078933979     -0.1033864969     -0.8771966640
 H      0.4131914245      1.6533329077     -0.1388349006
 H      0.2515905196      0.8888916577      1.5108999359
 H     -0.9191261701     -1.3324096954      0.5167340561
9
# ORCA AIMD Position Step 16, t=8.00 fs, E_Pot=-471.47031815 Hartree, Unit is Angstrom
 C      1.7849564547      0.0116808495      0.1905984246
 C      0.3872530922      0.7000808773      0.4233493985
 S     -0.9595379669     -0.2857297666     -0.3297110057
 H      1.9503685482     -0.9146110460      0.6863315198
 H      2.5333745718      0.7318064527      0.5297078502
 H      1.9087054858     -0.1067497500     -0.8755608552
 H      0.4129235543      1.6539362703     -0.1272576885
 H      0.2481846464      0.8972869736      1.5069782478
 H     -0.9226982577     -1.3275504219      0.5212954010
9
# ORCA AIMD Position Step 17, t=8.50 fs, E_Pot=-471.47147716 Hartree, Unit is Angstrom
 C      1.7848003440      0.0156275351      0.1912179777
 C      0.3886293132      0.6990812324      0.4266558587
 S     -0.9578069214     -0.2854455013     -0.3297287453
 H      1.9547581444     -0.9205208469      0.6904692722
 H      2.5361130104      0.7263809009      0.5245481325
 H      1.9100691627     -0.1109097006     -0.8744352437
 H      0.4123392925      1.6535054010     -0.1143124791
 H      0.2444227048      0.9054966530      1.5007172718
 H     -0.9258090463     -1.3214052833      0.5252907601
9
# ORCA AIMD Position Step 18, t=9.00 fs, E_Pot=-471.47222305 Hartree, Unit is Angstrom
 C      1.7845351180      0.0199752169      0.1918242810
 C      0.3900788843      0.6978259825      0.4299049315
 S     -0.9560575293     -0.2851395973     -0.3296933181
 H      1.9582821493     -0.9275419061      0.6954218760
 H      2.5394866789      0.7204035440      0.5194659503
 H      1.9118663175     -0.1157630079     -0.8737897376
 H      0.4114667325      1.6523359078     -0.1004282082
 H      0.2403141413      0.9133554060      1.4928668948
 H     -0.9284715049     -1.3141299978      0.5288151893
9
# ORCA AIMD Position Step 19, t=9.50 fs, E_Pot=-471.47238177 Hartree, Unit is Angstrom
 C      1.7841710968      0.0245494866      0.1924486141
 C      0.3915878246      0.6963099895      0.4330488458
 S     -0.9542871052     -0.2848047644     -0.3296080027
 H      1.9606939793     -0.9344285537      0.7005834786
 H      2.5438550783      0.7144216320      0.5146969651
 H      1.9139616112     -0.1211861154     -0.8735179801
 H      0.4103374532      1.6508111108     -0.0860975933
 H      0.2358498205      0.9207207147      1.4843470478
 H     -0.9307025909     -1.3059593113      0.5320261624
9
# ORCA AIMD Position Step 20, t=10.00 fs, E_Pot=-471.47201652 Hartree, Unit is Angstrom
 C      1.7837233516      0.0291816843      0.1931156035
 C      0.3931419835      0.6945265139      0.4360352110
 S     -0.9524929147     -0.2844321711     -0.3294777929
 H      1.9617697865     -0.9400054440      0.7053885931
 H      2.5495261485      0.7089365580      0.5104535175
 H      1.9162076556     -0.1270373194     -0.8734490633
 H      0.4089849621      1.6493582290     -0.0718431967
 H      0.2310086241      0.9274675727      1.4761645500
 H     -0.9325244604     -1.2971897713      0.5351313892
9
# ORCA AIMD Position Step 21, t=10.50 fs, E_Pot=-471.47137562 Hartree, Unit is Angstrom
 C      1.7832144515      0.0337250523      0.1938418266
 C      0.3947265491      0.6924726321      0.4388132505
 S     -0.9506722281     -0.2840122361     -0.3293089015
 H      1.9613337498     -0.9432909097      0.7093753021
 H      2.5566916926      0.7043426288      0.5068961986
 H      1.9184516290     -0.1331604110     -0.8733688231
 H      0.4074430045      1.6483941105     -0.0581773919
 H      0.2257692601      0.9334768065      1.4693054231
 H     -0.9339653983     -1.2881563875      0.5383709461
9
# ORCA AIMD Position Step 22, t=11.00 fs, E_Pot=-471.47077251 Hartree, Unit is Angstrom
 C      1.7826769763      0.0380659139      0.1946364121
 C      0.3963251180      0.6901555265      0.4413409504
 S     -0.9488223940     -0.2835355796     -0.3291081048
 H      1.9592742092     -0.9435751979      0.7122240527
 H      2.5653740170      0.7008811583      0.5041122857
 H      1.9205428189     -0.1393899581     -0.8730473061
 H      0.4057439881      1.6482662915     -0.0455602998
 H      0.2201268801      0.9386180521      1.4646139019
 H     -0.9350603607     -1.2792043536      0.5419943175
9
# ORCA AIMD Position Step 23, t=11.50 fs, E_Pot=-471.47045034 Hartree, Unit is Angstrom
 C      1.7821545358      0.0421297899      0.1955023836
 C      0.3979185272      0.6875985235      0.4435917887
 S     -0.9469409332     -0.2829940580     -0.3288819681
 H      1.9555522563     -0.9404631828      0.7137778286
 H      2.5753972446      0.6986200155      0.5021061110
 H      1.9223404197     -0.1455579288     -0.8722681065
 H      0.4039177829      1.6491984606     -0.0343614218
 H      0.2141119387      0.9427314553      1.4626789694
 H     -0.9358510512     -1.2706580117      0.5462338901
9
# ORCA AIMD Position Step 24, t=12.00 fs, E_Pot=-471.47048614 Hartree, Unit is Angstrom
 C      1.7817003876      0.0458830639      0.1964376896
 C      0.3994838512      0.6848453942      0.4455593759
 S     -0.9450256402     -0.2823817725     -0.3286360274
 H      1.9502050634     -0.9338932439      0.7140503257
 H      2.5863917696      0.6974626487      0.5008035852
 H      1.9237208922     -0.1515011194     -0.8708555490
 H      0.4019910460      1.6512509710     -0.0248311172
 H      0.2078066509      0.9456146203      1.4637539259
 H     -0.9363854939     -1.2627902397      0.5512775121
9
# ORCA AIMD Position Step 25, t=12.50 fs, E_Pot=-471.47077217 Hartree, Unit is Angstrom
 C      1.7813735487      0.0493311672      0.1974354541
 C      0.4009940385      0.6819615530      0.4472586643
 S     -0.9430746779     -0.2816959148     -0.3283740318
 H      1.9433454524     -0.9241402082      0.7132264855
 H      2.5978316020      0.6971827730      0.5000692849
 H      1.9245842897     -0.1570687844     -0.8686967109
 H      0.3999870204      1.6543054596     -0.0170866514
 H      0.2013537898      0.9470212694      1.4677294934
 H     -0.9367171029     -1.2557961143      0.5572436157
9
# ORCA AIMD Position Step 26, t=13.00 fs, E_Pot=-471.47107879 Hartree, Unit is Angstrom
 C      1.7812331439      0.0525142179      0.1984836282
 C      0.4024185196      0.6790314927      0.4487233751
 S     -0.9410866448     -0.2809373198     -0.3280973609
 H      1.9351578397     -0.9118037456      0.7116561123
 H      2.6090958983      0.6974749944      0.4997315009
 H      1.9248590953     -0.1621299069     -0.8657564468
 H      0.3979255567      1.6580777479     -0.0111145374
 H      0.1949542770      0.9466746650      1.4741665399
 H     -0.9369033036     -1.2497746865      0.5641627108
9
# ORCA AIMD Position Step 27, t=13.50 fs, E_Pot=-471.47116896 Hartree, Unit is Angstrom
 C      1.7813322432      0.0555005858      0.1995646930
 C      0.4037248066      0.6761528241      0.4500004589
 S     -0.9390606028     -0.2801106247     -0.3278047198
 H      1.9258894502     -0.8977766235      0.7098374667
 H      2.6195415046      0.6980099759      0.4996096462
 H      1.9245052597     -0.1665796004     -0.8620845099
 H      0.3958230286      1.6621566189     -0.0067873459
 H      0.1888534687      0.9442935781      1.4823773303
 H     -0.9370038122     -1.2447217837      0.5719684856
9
# ORCA AIMD Position Step 28, t=14.00 fs, E_Pot=-471.47091618 Hartree, Unit is Angstrom
 C      1.7817124642      0.0583781897      0.2006562705
 C      0.4048807907      0.6734281543      0.4511431402
 S     -0.9369960626     -0.2792240040     -0.3274921708
 H      1.9158352216     -0.8831818899      0.7083846928
 H      2.6285738888      0.6984850321      0.4995393790
 H      1.9235152688     -0.1703441240     -0.8578144613
 H      0.3936918756      1.6660604176     -0.0038904495
 H      0.1833194103      0.9396244124      1.4915328840
 H     -0.9370787250     -1.2405349956      0.5805002697
9
# ORCA AIMD Position Step 29, t=14.50 fs, E_Pot=-471.47037707 Hartree, Unit is Angstrom
 C      1.7824002174      0.0612428966      0.2017334206
 C      0.4058572801      0.6709563849      0.4522041174
 S     -0.9348929357     -0.2782885244     -0.3271535023
 H      1.9053157018     -0.8692673511      0.7079722000
 H      2.6357077328      0.6986650911      0.4993927194
 H      1.9219132131     -0.1733839547     -0.8531544297
 H      0.3915396911      1.6693007898     -0.0021531552
 H      0.1786179677      0.9324720588      1.5007727966
 H     -0.9371865986     -1.2370298539      0.5895165784
9
# ORCA AIMD Position Step 30, t=15.00 fs, E_Pot=-471.46978148 Hartree, Unit is Angstrom
 C      1.7834048477      0.0641837336      0.2027729601
 C      0.4066303518      0.6688247992      0.4532299659
 S     -0.9327514725     -0.2773172303     -0.3267808753
 H      1.8946497913     -0.8572534709      0.7092527874
 H      2.6406130204      0.6984125514      0.4990922703
 H      1.9197520060     -0.1756943520     -0.8483700871
 H      0.3893679817      1.6714436497     -0.0012793234
 H      0.1749893038      0.9227239869      1.5093005996
 H     -0.9373826994     -1.2339643359      0.5987174998
9
# ORCA AIMD Position Step 31, t=15.50 fs, E_Pot=-471.46942962 Hartree, Unit is Angstrom
 C      1.7847183092      0.0672660112      0.2037592826
 C      0.4071832460      0.6671027763      0.4542571378
 S     -0.9305722105     -0.2763241042     -0.3263656499
 H      1.8841277169     -0.8481490886      0.7127558362
 H      2.6431456979      0.6977064673      0.4986197675
 H      1.9171090984     -0.1773029626     -0.8437605946
 H      0.3871708744      1.6721604620     -0.0009741663
 H      0.1726284824      0.9103652009      1.5164569940
 H     -0.9377175706     -1.2310677731      0.6077724276
9
# ORCA AIMD Position Step 32, t=16.00 fs, E_Pot=-471.46953377 Hartree, Unit is Angstrom
 C      1.7863156591      0.0705155088      0.2046900640
 C      0.4075077094      0.6658374298      0.4553094699
 S     -0.9283559508     -0.2753230396     -0.3258992813
 H      1.8739920090     -0.8425732508      0.7187853154
 H      2.6433631352      0.6966516447      0.4980194759
 H      1.9140812322     -0.1782643041     -0.8396288421
 H      0.3849341207      1.6712663657     -0.0009656135
 H      0.1716712068      0.8954842434      1.5217706265
 H     -0.9382360039     -1.2280702463      0.6163493820
9
# ORCA AIMD Position Step 33, t=16.50 fs, E_Pot=-471.47009077 Hartree, Unit is Angstrom
 C      1.7881558114      0.0739082639      0.2055795463
 C      0.4076047966      0.6650511218      0.4563969069
 S     -0.9261037706     -0.2743269317     -0.3253741932
 H      1.8644327581     -0.8406362690      0.7273470763
 H      2.6415239057      0.6954772248      0.4973965883
 H      1.9107789140     -0.1786514270     -0.8362481885
 H      0.3826347258      1.6687441869     -0.0010198614
 H      0.1721845723      0.8782716154      1.5249896413
 H     -0.9389764428     -1.2247293620      0.6241427812
9
# ORCA AIMD Position Step 34, t=17.00 fs, E_Pot=-471.47086966 Hartree, Unit is Angstrom
 C      1.7901826355      0.0773697930      0.2064575679
 C      0.4074851583      0.6647407049      0.4575151790
 S     -0.9238170613     -0.2733469390     -0.3247845561
 H      1.8555975183     -0.8419225898      0.7381314148
 H      2.6380697179      0.6945230346      0.4969100749
 H      1.9073213115     -0.1785456229     -0.8338290905
 H      0.3802414318      1.6647544402     -0.0009512644
 H      0.1741624390      0.8590119198      1.5260973019
 H     -0.9399707937     -1.2208524691      0.6308975650
9
# ORCA AIMD Position Step 35, t=17.50 fs, E_Pot=-471.47152685 Hartree, Unit is Angstrom
 C      1.7923271987      0.0807845966      0.2073642497
 C      0.4071687949      0.6648784350      0.4586463418
 S     -0.9214975718     -0.2723919330     -0.3241269290
 H      1.8476094250     -0.8455817223      0.7505581665
 H      2.6335860639      0.6942112943      0.4967588411
 H      1.9038321586     -0.1780256131     -0.8324901953
 H      0.3777161478      1.6596312300     -0.0006266709
 H      0.1775253807      0.8380704290      1.5253127126
 H     -0.9412445991     -1.2163134091      0.6364285403
9
# ORCA AIMD Position Step 36, t=18.00 fs, E_Pot=-471.47177570 Hartree, Unit is Angstrom
 C      1.7945121472      0.0840133450      0.2083422455
 C      0.4066841961      0.6654146295      0.4597602941
 S     -0.9191474378     -0.2714681322     -0.3234007369
 H      1.8405843471     -0.8504930877      0.7638683415
 H      2.6287390108      0.6950020340      0.4971601279
 H      1.9004369916     -0.1771580408     -0.8322389685
 H      0.3750162882      1.6538632766      0.0000360770
 H      0.1821257246      0.8158743725      1.5230746056
 H     -0.9428175215     -1.2110635429      0.6406344039
9
# ORCA AIMD Position Step 37, t=18.50 fs, E_Pot=-471.47151250 Hartree, Unit is Angstrom
 C      1.7966586358      0.0869132874      0.2094293673
 C      0.4060667857      0.6662821640      0.4608175410
 S     -0.9167691895     -0.2705789151     -0.3226085673
 H      1.8346406503     -0.8554518050      0.7772332723
 H      2.6241899152      0.6973334332      0.4983203955
 H      1.8972616825     -0.1759910878     -0.8329660266
 H      0.3720979197      1.6480589673      0.0010760738
 H      0.1877584776      0.7928896116      1.5200038630
 H     -0.9447040807     -1.2051370426      0.6435060844
9
# ORCA AIMD Position Step 38, t=19.00 fs, E_Pot=-471.47084320 Hartree, Unit is Angstrom
 C      1.7986951057      0.0893577239      0.2106537315
 C      0.4053566659      0.6674027242      0.4617734754
 S     -0.9143657429     -0.2697248152     -0.3217562710
 H      1.8299003382     -0.8593313878      0.7898549157
 H      2.6204976631      0.7015532361      0.5004015343
 H      1.8944318811     -0.1745524853     -0.8344549226
 H      0.3689196009      1.6428951247      0.0025041464
 H      0.1941785233      0.7695945758      1.5168405356
 H     -0.9469145689     -1.1986504116      0.6451289835
9
# ORCA AIMD Position Step 39, t=19.50 fs, E_Pot=-471.47001540 Hartree, Unit is Angstrom
 C      1.8005661313      0.0912517986      0.2120320024
 C      0.4045958139      0.6686943635      0.4625842154
 S     -0.9119403908     -0.2689037100     -0.3208528522
 H      1.8264841282     -0.8612024813      0.8010431031
 H      2.6180266197      0.7078530207      0.5034883602
 H      1.8920727598     -0.1728521672     -0.8364059215
 H      0.3654468049      1.6390514587      0.0043239870
 H      0.2011232029      0.7464549348      1.5143549112
 H     -0.9494560235     -1.1917960578      0.6456785775
9
# ORCA AIMD Position Step 40, t=20.00 fs, E_Pot=-471.46929968 Hartree, Unit is Angstrom
 C      1.8022390766      0.0925432721      0.2135698774
 C      0.4038250696      0.6700794824      0.4632135417
 S     -0.9094968088     -0.2681112152     -0.3199101317
 H      1.8245040515     -0.8604074828      0.8102677784
 H      2.6168828113      0.7162204816      0.5075652527
 H      1.8903084649     -0.1708886908     -0.8384695582
 H      0.3616567635      1.6371362429      0.0065573167
 H      0.2083374750      0.7239034989      1.5132399530
 H     -0.9523330814     -1.1848296518      0.6454088233
9
# ORCA AIMD Position Step 41, t=20.50 fs, E_Pot=-471.46887526 Hartree, Unit is Angstrom
 C      1.8037067355      0.0932279482      0.2152633404
 C      0.4030814001      0.6714920418      0.4636398520
 S     -0.9070390811     -0.2673412863     -0.3189421669
 H      1.8240563468     -0.8566014962      0.8171913490
 H      2.6168963887      0.7264229347      0.5125087650
 H      1.8892608736     -0.1686577458     -0.8402844571
 H      0.3575434311      1.6376126760      0.0092686271
 H      0.2155970918      0.7023291884      1.5140021241
 H     -0.9555484871     -1.1780510936      0.6446330256
9
# ORCA AIMD Position Step 42, t=21.00 fs, E_Pot=-471.46876468 Hartree, Unit is Angstrom
 C      1.8049853567      0.0933501718      0.2170994688
 C      0.4023959400      0.6728828272      0.4638616047
 S     -0.9045717436     -0.2665870118     -0.3179644284
 H      1.8252161178     -0.8497712664      0.8216877825
 H      2.6176553552      0.7380274411      0.5180988076
 H      1.8890475430     -0.1661608516     -0.8415142189
 H      0.3531220586      1.6407380177      0.0125835321
 H      0.2227247615      0.6820761479      1.5168745344
 H     -0.9591030043     -1.1717793562      0.6436974161
9
# ORCA AIMD Position Step 43, t=21.50 fs, E_Pot=-471.46883853 Hartree, Unit is Angstrom
 C      1.8061088773      0.0929993112      0.2190563607
 C      0.4017931344      0.6742219735      0.4638998275
 S     -0.9020998271     -0.2658415480     -0.3169927628
 H      1.8280342837     -0.8402392091      0.8238527144
 H      2.6185800659      0.7504526302      0.5240455022
 H      1.8897789828     -0.1634126366     -0.8418795642
 H      0.3484326568      1.6465271826      0.0166950047
 H      0.2295958818      0.6634502161      1.5217750562
 H     -0.9629945179     -1.1663223796      0.6429487576
9
# ORCA AIMD Position Step 44, t=22.00 fs, E_Pot=-471.46888415 Hartree, Unit is Angstrom
 C      1.8071210960      0.0923032056      0.2211025857
 C      0.4012910016      0.6754985858      0.4637970227
 S     -0.8996288846     -0.2650991109     -0.3160422206
 H      1.8325368945     -0.8286526243      0.8240043970
 H      2.6190181325      0.7630396612      0.5300248581
 H      1.8915555364     -0.1604456709     -0.8411835532
 H      0.3435415737      1.6547483117      0.0218542884
 H      0.2361336847      0.6467271566      1.5283207944
 H     -0.9672162376     -1.1619444975      0.6426987486
9
# ORCA AIMD Position Step 45, t=22.50 fs, E_Pot=-471.46871086 Hartree, Unit is Angstrom
 C      1.8080676172      0.0914191138      0.2231971472
 C      0.4009022260      0.6767179165      0.4636128775
 S     -0.8971649864     -0.2643559007     -0.3151258803
 H      1.8387266383     -0.8159508420      0.8226702146
 H      2.6183388543      0.7751279469      0.5357156771
 H      1.8944642085     -0.1573124122     -0.8393289240
 H      0.3385405874      1.6649509777      0.0283473433
 H      0.2422969036      0.6321571182      1.5358936609
 H     -0.9717541301     -1.1588352556      0.6431895180
9
# ORCA AIMD Position Step 46, t=23.00 fs, E_Pot=-471.46825247 Hartree, Unit is Angstrom
 C      1.8089888961      0.0905219834      0.2252911663
 C      0.4006356283      0.6778969426      0.4634180130
 S     -0.8947146751     -0.2636108191     -0.3142538406
 H      1.8465858981     -0.8032976097      0.8205493126
 H      2.6160128561      0.7861245250      0.5408320738
 H      1.8985757263     -0.1540842878     -0.8363271902
 H      0.3335433417      1.6765206932      0.0364615675
 H      0.2480646608      0.6199625110      1.5437382596
 H     -0.9765839595     -1.1570843397      0.6445654284
9
# ORCA AIMD Position Step 47, t=23.50 fs, E_Pot=-471.46762376 Hartree, Unit is Angstrom
 C      1.8099150813      0.0897894268      0.2273322992
 C      0.4004975932      0.6790592742      0.4632872079
 S     -0.8922848784     -0.2628658486     -0.3134325480
 H      1.8560797050     -0.7919658427      0.8184412283
 H      2.6116710428      0.7955611952      0.5451489757
 H      1.9039419920     -0.1508482160     -0.8322991831
 H      0.3286794702      1.6887488878      0.0464495449
 H      0.2534227160      0.6103299097      1.5510688402
 H     -0.9816685352     -1.1566670838      0.6468561427
9
# ORCA AIMD Position Step 48, t=24.00 fs, E_Pot=-471.46709239 Hartree, Unit is Angstrom
 C      1.8108629179      0.0893832556      0.2292721398
 C      0.4004931834      0.6802301812      0.4632931802
 S     -0.8898827899     -0.2621260181     -0.3126645771
 H      1.8671556133     -0.7831713765      0.8171367294
 H      2.6051432340      0.8031378531      0.5485204045
 H      1.9105938720     -0.1477010080     -0.8274664599
 H      0.3240871820      1.7009067214      0.0584961275
 H      0.2583533742      0.6033987263      1.5571665440
 H     -0.9869558409     -1.1574434349      0.6499741744
9
# ORCA AIMD Position Step 49, t=24.50 fs, E_Pot=-471.46695476 Hartree, Unit is Angstrom
 C      1.8118347638      0.0894290987      0.2310754596
 C      0.4006268502      0.6814322550      0.4635014464
 S     -0.8875157250     -0.2613989513     -0.3119488904
 H      1.8797370337     -0.7778738109      0.8172824034
 H      2.5964794557      0.8087524572      0.5508915267
 H      1.9185390486     -0.1447421154     -0.8221327519