8
# ORCA AIMD Position Step 0, t=0.00 fs, E_Pot=-78.30617965 Hartree, Unit is Angstrom
 H      1.1814065967     -0.0040606968      0.9828590590
 C      0.7681795839     -0.0229994963     -0.0213314163
 H      1.1633014527      0.8291582115     -0.5665097895
 H      1.1122336593     -0.9285618996     -0.5123455147
 C     -0.7682046172      0.0229496385      0.0213316701
 H     -1.1633362282     -0.8293548072      0.5662734898
 H     -1.1122589298      0.9283806265      0.5125899609
 H     -1.1814215175      0.0042884234     -0.9828674592
8
# ORCA AIMD Position Step 1, t=0.50 fs, E_Pot=-78.30588806 Hartree, Unit is Angstrom
 H      1.1850781412     -0.0034743582      0.9855517038
 C      0.7645235426     -0.0178744889     -0.0178571487
 H      1.1681316280      0.8298172050     -0.5667471393
 H      1.1191547278     -0.9368302025     -0.5066456773
 C     -0.7734526673      0.0254327673      0.0191573678
 H     -1.1730855843     -0.8221936995      0.5623859845
 H     -1.1121494402      0.9243643454      0.5088327797
 H     -1.1783003479      0.0005584315     -0.9846778706
8
# ORCA AIMD Position Step 2, t=1.00 fs, E_Pot=-78.30511992 Hartree, Unit is Angstrom
 H      1.1885117842     -0.0027279141      0.9881654870
 C      0.7609087419     -0.0128314165     -0.0143986723
 H      1.1728199579      0.8304185882     -0.5669017317
 H      1.1255409337     -0.9439491417     -0.5003904975
 C     -0.7786761117      0.0278950841      0.0169575292
 H     -1.1829091280     -0.8152742332      0.5586420192
 H     -1.1124241433      0.9210986290      0.5053003665
 H     -1.1753419412     -0.0030662226     -0.9868137173
8
# ORCA AIMD Position Step 3, t=1.50 fs, E_Pot=-78.30414479 Hartree, Unit is Angstrom
 H      1.1914482092     -0.0016682693      0.9906120017
 C      0.7573991229     -0.0079765887     -0.0109902793
 H      1.1771867745      0.8309017510     -0.5668897586
 H      1.1308658888     -0.9488875502     -0.4931803747
 C     -0.7838137758      0.0302993222      0.0147241817
 H     -1.1927996685     -0.8088710439      0.5552017051
 H     -1.1134432540      0.9193125620      0.5022198914
 H     -1.1727154117     -0.0064556695     -0.9895541568
8
# ORCA AIMD Position Step 4, t=2.00 fs, E_Pot=-78.30328006 Hartree, Unit is Angstrom
 H      1.1936463460     -0.0001483406      0.9928281333
 C      0.7540481085     -0.0033938476     -0.0076555474
 H      1.1810593865      0.8312160212     -0.5666335666
 H      1.1347043976     -0.9508797350     -0.4847607364
 C     -0.7888143363      0.0326171363      0.0124525218
 H     -1.2027343046     -0.8032070293      0.5521934249
 H     -1.1155025720      0.9195813719      0.4997419427
 H     -1.1705568058     -0.0094877465     -0.9931091209
8
# ORCA AIMD Position Step 5, t=2.50 fs, E_Pot=-78.30276699 Hartree, Unit is Angstrom
 H      1.1948939900      0.0019699105      0.9947890614
 C      0.7508949587      0.0008592661     -0.0044067187
 H      1.1842799441      0.8313291214     -0.5660678715
 H      1.1367578503     -0.9494729269     -0.4750359886
 C     -0.7936407861      0.0348343705      0.0101432513
 H     -1.2126660227     -0.7984300792      0.5496991842
 H     -1.1188003981      0.9222395832      0.4978983778
 H     -1.1689581898     -0.0120505295     -0.9975905448
8
# ORCA AIMD Position Step 6, t=3.00 fs, E_Pot=-78.30268462 Hartree, Unit is Angstrom
 H      1.1950166200      0.0048126431      0.9965177130
 C      0.7479621219      0.0047533386     -0.0012448964
 H      1.1867129210      0.8312345472     -0.5651455471
 H      1.1368699126     -0.9445509227     -0.4640713893
 C     -0.7982730018      0.0369541077      0.0078039682
 H     -1.2225181550     -0.7945980847      0.5477450664
 H     -1.1234176114      0.9273283581      0.4965787698
 H     -1.1679619547     -0.0140445191     -1.0029954386
8
# ORCA AIMD Position Step 7, t=3.50 fs, E_Pot=-78.30293090 Hartree, Unit is Angstrom
 H      1.1938837356      0.0084913604      0.9980893193
 C      0.7452534212      0.0082877712      0.0018394691
 H      1.1882515545      0.8309569450     -0.5638423793
 H      1.1350357494     -0.9363430349     -0.4520880557
 C     -0.8027079384      0.0389965789      0.0054490444
 H     -1.2321830211     -0.7916745336      0.5462982785
 H     -1.1293152418      0.9345909162      0.4955332319
 H     -1.1675608430     -0.0153847878     -1.0092035623
8
# ORCA AIMD Position Step 8, t=4.00 fs, E_Pot=-78.30327452 Hartree, Unit is Angstrom
 H      1.1914122432      0.0131000779      0.9996301985
 C      0.7427531005      0.0114906267      0.0048659948
 H      1.1888226789      0.8305547907     -0.5621602790
 H      1.1314056349     -0.9254207947     -0.4394525406
 C     -0.8069575235      0.0409959788      0.0030979282
 H     -1.2415254609     -0.7895353402      0.5452712781
 H     -1.1363492907      0.9435167197      0.4944018291
 H     -1.1677032978     -0.0160032936     -1.0159900328
8
# ORCA AIMD Position Step 9, t=4.50 fs, E_Pot=-78.30345638 Hartree, Unit is Angstrom
 H      1.1875666233      0.0187123883      1.0013103985
 C      0.7404259990      0.0144172620      0.0078635257
 H      1.1883895162      0.8301199169     -0.5601285754
 H      1.1262806981     -0.9126771658     -0.4266587123
 C     -0.8110448289      0.0429951831      0.0007723564
 H     -1.2503911077     -0.7879857306      0.5445323588
 H     -1.1442982456      0.9534217650      0.4927630044
 H     -1.1683029818     -0.0158513534     -1.0230507405
8
# ORCA AIMD Position Step 10, t=5.00 fs, E_Pot=-78.30330545 Hartree, Unit is Angstrom
 H      1.1823558418      0.0253784738      1.0033304149
 C      0.7382193410      0.0171467484      0.0108685870
 H      1.1869521290      0.8297737038     -0.5578031402
 H      1.1200956142     -0.8992761779     -0.4142967949
 C     -0.8149993578      0.0450398097     -0.0015067517
 H     -1.2586183962     -0.7867844718      0.5439210932
 H     -1.1528966090      0.9635451573      0.4901892963
 H     -1.1692508718     -0.0149020657     -1.0300365943
8
# ORCA AIMD Position Step 11, t=5.50 fs, E_Pot=-78.30282889 Hartree, Unit is Angstrom
 H      1.1758272702      0.0331222344      1.0059029017
 C      0.7360667108      0.0197747659      0.0139225164
 H      1.1845454039      0.8296600098     -0.5552632142
 H      1.1133816152     -0.8865576580     -0.4030034299
 C     -0.8188522621      0.0471728815     -0.0037220117
 H     -1.2660526829     -0.7856718711      0.5432664321
 H     -1.1618682464      0.9731431095      0.4862993548
 H     -1.1704282328     -0.0131523642     -1.0365917417
8
# ORCA AIMD Position Step 12, t=6.00 fs, E_Pot=-78.30223356 Hartree, Unit is Angstrom
 H      1.1680582575      0.0419388104      1.0092310307
 C      0.7338945408      0.0224020221      0.0170668096
 H      1.1812346350      0.8299351491     -0.5526059188
 H      1.1067053573     -0.8758866148     -0.3933892173
 C     -0.8226320746      0.0494307871     -0.0058614918
 H     -1.2725606454     -0.7843979100      0.5424051403
 H     -1.1709554522      0.9815678801      0.4807992427
 H     -1.1717189684     -0.0106244218     -1.0423910626
8
# ORCA AIMD Position Step 13, t=6.50 fs, E_Pot=-78.30184729 Hartree, Unit is Angstrom
 H      1.1591463701      0.0517928343      1.0134857599
 C      0.7316307320      0.0251186907      0.0203368093
 H      1.1771089879      0.8307553757     -0.5499385457
 H      1.1005868247     -0.8684541780     -0.3859479668
 C     -0.8263612578      0.0518406505     -0.0079197402
 H     -1.2780432970     -0.7827474853      0.5411985525
 H     -1.1799419288      0.9883265640      0.4735105563
 H     -1.1730202061     -0.0073662565     -1.0471731604
8
# ORCA AIMD Position Step 14, t=7.00 fs, E_Pot=-78.30195344 Hartree, Unit is Angstrom
 H      1.1491995577      0.0626177146      1.0187845371
 C      0.7292139370      0.0279877477      0.0237548785
 H      1.1722733408      0.8322624326     -0.5473688555
 H      1.0954116310     -0.8650652553     -0.3809639082
 C     -0.8300536476      0.0544188530     -0.0098980536
 H     -1.2824463804     -0.7805606785      0.5395461896
 H     -1.1886694890      0.9931199963      0.4643860999
 H     -1.1742503927     -0.0034515362     -1.0507663372
8
# ORCA AIMD Position Step 15, t=7.50 fs, E_Pot=-78.30262186 Hartree, Unit is Angstrom
 H      1.1383274985      0.0743161579      1.0251738431
 C      0.7266011375      0.0310322115      0.0273251098
 H      1.1668391932      0.8345679237     -0.5449938613
 H      1.0913633146     -0.8659731246     -0.3784432706
 C     -0.8337127679      0.0571703525     -0.0118041928
 H     -1.2857673742     -0.7777468941      0.5373953486
 H     -1.1970489649      0.9958642882      0.4535150944
 H     -1.1753545274      0.0010213518     -1.0531061771
8
# ORCA AIMD Position Step 16, t=8.00 fs, E_Pot=-78.30364888 Hartree, Unit is Angstrom
 H      1.1266351110      0.0867620388      1.0326176136
 C      0.7237712508      0.0342312324      0.0310316352
 H      1.1609155141      0.8377377568     -0.5428879868
 H      1.0883998849     -0.8708205923     -0.3780955537
 C     -0.8373310086      0.0600885749     -0.0136517267
 H     -1.2880586994     -0.7742923286      0.5347462027
 H     -1.2050656959      0.9966970687      0.4411195153
 H     -1.1763064128      0.0059309470     -1.0542440532
8
# ORCA AIMD Position Step 17, t=8.50 fs, E_Pot=-78.30465341 Hartree, Unit is Angstrom
 H      1.1142188003      0.0998036522      1.0409931146
 C      0.7207239010      0.0375268800      0.0348413397
 H      1.1546005739      0.8417786429     -0.5410920278
 H      1.0862826356     -0.8787112025     -0.3793735841
 C     -0.8408897546      0.0631558865     -0.0154590907
 H     -1.2894268853     -0.7702605007      0.5316521605
 H     -1.2127793476      0.9959684046      0.4275419282
 H     -1.1771079379      0.0111351757     -1.0543460833
8
# ORCA AIMD Position Step 18, t=9.00 fs, E_Pot=-78.30526468 Hartree, Unit is Angstrom
 H      1.1011655726      0.1132682904      1.0500952834
 C      0.7174743667      0.0408390474      0.0387099563
 H      1.1479758957      0.8466292183     -0.5396047941
 H      1.0846436770     -0.8883821287     -0.3815587693
 C     -0.8443606411      0.0663448984     -0.0172483576
 H     -1.2900275393     -0.7657856495      0.5282153411
 H     -1.2203169925      0.9942139571      0.4132240328
 H     -1.1777854856      0.0164748228     -1.0536820235
8
# ORCA AIMD Position Step 19, t=9.50 fs, E_Pot=-78.30528577 Hartree, Unit is Angstrom
 H      1.0875547831      0.1269679436      1.0596496957
 C      0.7140468232      0.0440831329      0.0425893737
 H      1.1411033410      0.8521582114     -0.5383793357
 H      1.0830665587     -0.8984177498     -0.3838638281
 C     -0.8477081369      0.0696209578     -0.0190436641
 H     -1.2900561093     -0.7610589696      0.5245771817
 H     -1.2278578062      0.9921067374      0.3986748699
 H     -1.1783836473      0.0217782054     -1.0526037533
8
# ORCA AIMD Position Step 20, t=10.00 fs, E_Pot=-78.30475783 Hartree, Unit is Angstrom
 H      1.0734619679      0.1407057693      1.0693331886
 C      0.7104678387      0.0471854851      0.0464341205
 H      1.1340259187      0.8581710031     -0.5373250625
 H      1.0811573706     -0.9074459331     -0.3855267720
 C     -0.8508935449      0.0729460747     -0.0208692878
 H     -1.2897347389     -0.7563081085      0.5209045377
 H     -1.2356079900      0.9903852969      0.3844288144
 H     -1.1789565972      0.0268671190     -1.0515137029
8
# ORCA AIMD Position Step 21, t=10.50 fs, E_Pot=-78.30391935 Hartree, Unit is Angstrom
 H      1.0589639582      0.1542829100      1.0788000207
 C      0.7067611966      0.0500939439      0.0502059583
 H      1.1267722233      0.8644242751     -0.5363159554
 H      1.0785953215     -0.9142852459     -0.3858816508
 C     -0.8538802616      0.0762841427     -0.0227475030
 H     -1.2892960130     -0.7517711572      0.5173721818
 H     -1.2437662020      0.9897612011      0.3709961189
 H     -1.1795577826      0.0315639290     -1.0508249221
8
# ORCA AIMD Position Step 22, t=11.00 fs, E_Pot=-78.30309681 Hartree, Unit is Angstrom
 H      1.0441443269      0.1675053065      1.0877107038
 C      0.7029442547      0.0527832481      0.0538765119
 H      1.1193636999      0.8706468818     -0.5352038544
 H      1.0751626427     -0.9180386002     -0.3844039047
 C     -0.8566397503      0.0796067164     -0.0246965392
 H     -1.2889649632     -0.7476673976      0.5141432620
 H     -1.2524829624      0.9908166260      0.3588121675
 H     -1.1802289828      0.0356994675     -1.0509162979
8
# ORCA AIMD Position Step 23, t=11.50 fs, E_Pot=-78.30257456 Hartree, Unit is Angstrom
 H      1.0290982142      0.1801903066      1.0957605378
 C      0.6990255886      0.0552565155      0.0574284257
 H      1.1118234439      0.8765641559     -0.5338349203
 H      1.0707592460     -0.9181447149     -0.3807354687
 C     -0.8591572889      0.0828980209     -0.0267290964
 H     -1.2889412014     -0.7441680920      0.5113499027
 H     -1.2618212966      0.9939109879      0.3481942556
 H     -1.1809901785      0.0391212139     -1.0520882400
8
# ORCA AIMD Position Step 24, t=12.00 fs, E_Pot=-78.30249005 Hartree, Unit is Angstrom
 H      1.0139357351      0.1921730151      1.1027053354
 C      0.6950035587      0.0575443479      0.0608556548
 H      1.1041851152      0.8819227211     -0.5320670453
 H      1.0654083304     -0.9144025896     -0.3746966123
 C     -0.8614363233      0.0861576710     -0.0288518318
 H     -1.2893833206     -0.7413712872      0.5090765125
 H     -1.2717282431      0.9991188640      0.3393147555
 H     -1.1818318840      0.0417011141     -1.0545253197
8
# ORCA AIMD Position Step 25, t=12.50 fs, E_Pot=-78.30278982 Hartree, Unit is Angstrom
 H      0.9987834053      0.2033124053      1.1083825456
 C      0.6908655347      0.0597027678      0.0641633255
 H      1.0965007248      0.8865133248     -0.5297861711
 H      1.0592571885     -0.9069802897     -0.3662897474
 C     -0.8635003919      0.0894000531     -0.0310659621
 H     -1.2903976163     -0.7392846381      0.5073483458
 H     -1.2820257194      1.0062161750      0.3321960531
 H     -1.1827114639      0.0433423607     -1.0582722119
8
# ORCA AIMD Position Step 26, t=13.00 fs, E_Pot=-78.30326000 Hartree, Unit is Angstrom
 H      0.9837832975      0.2134971589      1.1127266278
 C      0.6865876958      0.0618105141      0.0673673095
 H      1.0888464085      0.8901898612     -0.5269199272
 H      1.0525745037     -0.8964118309     -0.3556969552
 C     -0.8653921244      0.0926503814     -0.0333687469
 H     -1.2920326899     -0.7378194057      0.5061272928
 H     -1.2924242205      1.0147184002      0.3267267785
 H     -1.1835544005      0.0439845179     -1.0632274959
8
# ORCA AIMD Position Step 27, t=13.50 fs, E_Pot=-78.30361951 Hartree, Unit is Angstrom
 H      0.9690899017      0.2226510404      1.1157779186
 C      0.6821355559      0.0639654551      0.0704933310
 H      1.0813256668      0.8928833259     -0.5234474809
 H      1.0457422598     -0.8835773143     -0.3432690256
 C     -0.8671695410      0.0959385552     -0.0357553387
 H     -1.2942806510     -0.7367970742      0.5053157989
 H     -1.3025561509      1.0239596380      0.3226933966
 H     -1.1842605987      0.0436065356     -1.0691566804
8
# ORCA AIMD Position Step 28, t=14.00 fs, E_Pot=-78.30364428 Hartree, Unit is Angstrom
 H      0.9548648972      0.2307373744      1.1176843334
 C      0.6774655996      0.0662791792      0.0735751512
 H      1.0740698303      0.8946097909     -0.5194048614
 H      1.0392375053     -0.8696535769     -0.3295004202
 C     -0.8689004786      0.0992925209     -0.0382204524
 H     -1.2970846053     -0.7359678233      0.5047684315
 H     -1.3120206317      1.0331919960      0.3198186701
 H     -1.1847148452      0.0422274223     -1.0757221511
8
# ORCA AIMD Position Step 29, t=14.50 fs, E_Pot=-78.30327897 Hartree, Unit is Angstrom
 H      0.9412702219      0.2377619675      1.1186951769
 C      0.6725285957      0.0688684506      0.0766512667
 H      1.0672356602      0.8954716236     -0.5148852314
 H      1.0335974225     -0.8560183715     -0.3149832623
 C     -0.8706562197      0.1027326724     -0.0407595011
 H     -1.3003511483     -0.7350380256      0.5043093152
 H     -1.3204303988      1.0416843933      0.3177993302
 H     -1.1847998032      0.0399045977     -1.0825247638
8
# ORCA AIMD Position Step 30, t=15.00 fs, E_Pot=-78.30268521 Hartree, Unit is Angstrom
 H      0.9284599249      0.2437736744      1.1191462278
 C      0.6672751060      0.0718425488      0.0797598041
 H      1.0610000147      0.8956512003     -0.5100337027
 H      1.0293621387     -0.8440953198     -0.3003364332
 C     -0.8725052952      0.1062681420     -0.0433691172
 H     -1.3039659357     -0.7337026288      0.5037528112
 H     -1.3274534752      1.0488061306      0.3163381310
 H     -1.1844096311      0.0367301771     -1.0891504046
8
# ORCA AIMD Position Step 31, t=15.50 fs, E_Pot=-78.30218306 Hartree, Unit is Angstrom
 H      0.9165712789      0.2488618390      1.1194353057
 C      0.6616632360      0.0752870014      0.0829320423
 H      1.0555514430      0.8953964185     -0.5050363870
 H      1.0269956192     -0.8351448344     -0.2861149002
 C     -0.8745081289      0.1098950962     -0.0460471786
 H     -1.3078101943     -0.7316780540      0.5029246399
 H     -1.3328457060      1.0540887698      0.3151684711
 H     -1.1834624796      0.0328256144     -1.0952151768
8
# ORCA AIMD Position Step 32, t=16.00 fs, E_Pot=-78.30208940 Hartree, Unit is Angstrom
 H      0.9057155538      0.2531501203      1.1199879931
 C      0.6556677015      0.0792467635      0.0861861103
 H      1.0510785051      0.8949976148     -0.5001035836
 H      1.0267963143     -0.8300370200     -0.2727178673
 C     -0.8767128550      0.1135966633     -0.0487925392
 H     -1.3117762504     -0.7287319395      0.5016810548
 H     -1.3364731663      1.0572661773      0.3140718238
 H     -1.1819105900      0.0283352146     -1.1004044305
8
# ORCA AIMD Position Step 33, t=16.50 fs, E_Pot=-78.30253440 Hartree, Unit is Angstrom
 H      0.8959687986      0.2567868071      1.1212144880
 C      0.6492881807      0.0837142365      0.0895232075
 H      1.0477547338      0.8947563559     -0.4954475214
 H      1.0288214030     -0.8290714327     -0.2603243783
 C     -0.8791524000      0.1173439738     -0.0516046511
 H     -1.3157806331     -0.7247072211      0.4999244069
 H     -1.3383249978      1.0582955606      0.3128890423
 H     -1.1797472494      0.0234190140     -1.1045028118
8
# ORCA AIMD Position Step 34, t=17.00 fs, E_Pot=-78.30337795 Hartree, Unit is Angstrom
 H      0.8873631162      0.2599325936      1.1234609840
 C      0.6425544918      0.0886274757      0.0929282804
 H      1.0457206866      0.8949482808     -0.4912561012
 H      1.0328519088     -0.8319100675     -0.2488809960
 C     -0.8818428238      0.1210979226     -0.0544831977
 H     -1.3197738558     -0.7195390969      0.4976141281
 H     -1.3385173916      1.0573622406      0.3115264295
 H     -1.1770102715      0.0182454312     -1.1074140997
8
# ORCA AIMD Position Step 35, t=17.50 fs, E_Pot=-78.30428440 Hartree, Unit is Angstrom
 H      0.8798792939      0.2627477063      1.1269621416
 C      0.6355269928      0.0938804407      0.0963752710
 H      1.0450645757      0.8957845879     -0.4876656278
 H      1.0384138250     -0.8376512535     -0.2381458762
 C     -0.8847829412      0.1248115140     -0.0574277697
 H     -1.3237464129     -0.7132640586      0.4947726081
 H     -1.3372886817      1.0548688653      0.3099566543
 H     -1.1737819100      0.0129840083     -1.1091704487
8
# ORCA AIMD Position Step 36, t=18.00 fs, E_Pot=-78.30489659 Hartree, Unit is Angstrom
 H      0.8734421296      0.2653807741      1.1318037146
 C      0.6282923433      0.0993420660      0.0998349568
 H      1.0458042628      0.8973789583     -0.4847370835
 H      1.0448482415     -0.8450143362     -0.2277695669
 C     -0.8879553353      0.1284328847     -0.0604375261
 H     -1.3277307582     -0.7060203691      0.4914855929
 H     -1.3349845510      1.0514072479      0.3082135863
 H     -1.1701852222      0.0077985633     -1.1099308261
8
# ORCA AIMD Position Step 37, t=18.50 fs, E_Pot=-78.30499483 Hartree, Unit is Angstrom
 H      0.8679199856      0.2679615402      1.1379043577
 C      0.6209561935      0.1048777539      0.1032825164
 H      1.0478743332      0.8997272617     -0.4824411442
 H      1.0514062958     -0.8525679332     -0.2173820207
 C     -0.8913289173      0.1319092041     -0.0635107078
 H     -1.3317990908     -0.6980394171      0.4878967706
 H     -1.3320319668      1.0477095691      0.3063794275
 H     -1.1663770029      0.0028411716     -1.1099683534
8
# ORCA AIMD Position Step 38, t=19.00 fs, E_Pot=-78.30456825 Hartree, Unit is Angstrom
 H      0.8631297068      0.2705984121      1.1450221383
 C      0.6136346808      0.1103673811      0.1067026800
 H      1.0511217951      0.9027053605     -0.4806560500
 H      1.0573425175     -0.8589377435     -0.2066619524
 C     -0.8948630917      0.1351915499     -0.0666438648
 H     -1.3360567860     -0.6896276040      0.4841963044
 H     -1.3289013336      1.0445767662      0.3045627402
 H     -1.1625375808     -0.0017524809     -1.1096463887
8
# ORCA AIMD Position Step 39, t=19.50 fs, E_Pot=-78.30379438 Hartree, Unit is Angstrom
 H      0.8588470599      0.2733804402      1.1527853799
 C      0.6064460437      0.1157168180      0.1100917976
 H      1.0553124694      0.9060861277     -0.4791796676
 H      1.0619897933     -0.8629594043     -0.1953794141
 C     -0.8985133208      0.1382405124     -0.0698307524
 H     -1.3406314571     -0.6811390635      0.4806034172
 H     -1.3260588476      1.0427864127      0.3028676466
 H     -1.1588580633     -0.0058658180     -1.1093838533
8
# ORCA AIMD Position Step 40, t=20.00 fs, E_Pot=-78.30295695 Hartree, Unit is Angstrom
 H      0.8548216739      0.2763822513      1.1607417132
 C      0.5995029316      0.1208629840      0.1134573506
 H      1.0601478099      0.9095721695     -0.4777536938
 H      1.0648113277     -0.8637723798     -0.1834143837
 C     -0.9022374795      0.1410317764     -0.0730610639
 H     -1.3456580278     -0.6729406687      0.4773437871
 H     -1.3239147518      1.0429898794      0.3013576461
 H     -1.1555259818     -0.0094017981     -1.1096116081
8
# ORCA AIMD Position Step 41, t=20.50 fs, E_Pot=-78.30233669 Hartree, Unit is Angstrom
 H      0.8507945841      0.2796700979      1.1684159553
 C      0.5929055321      0.1257742155      0.1168159283
 H      1.0652896800      0.9128375935     -0.4760953885
 H      1.0654330327     -0.8608681991     -0.1707591634
 C     -0.9060019993      0.1435604401     -0.0763194210
 H     -1.3512608855     -0.6653723680      0.4746235026
 H     -1.3227766935      1.0456165014      0.3000212119
 H     -1.1527106607     -0.0122810903     -1.1107234890
8
# ORCA AIMD Position Step 42, t=21.00 fs, E_Pot=-78.30210960 Hartree, Unit is Angstrom
 H      0.8465161954      0.2833074664      1.1753674292
 C      0.5867355124      0.1304480952      0.1201906151
 H      1.0703893361      0.9155714665     -0.4739313950
 H      1.0636624811     -0.8541101881     -0.1575120599
 C     -0.9097866256      0.1458427184     -0.0795851767
 H     -1.3575350576     -0.6587075700      0.4726024661
 H     -1.3228184687      1.0508063815      0.2987485443
 H     -1.1505498923     -0.0144386210     -1.1130275537
8
# ORCA AIMD Position Step 43, t=21.50 fs, E_Pot=-78.30228560 Hartree, Unit is Angstrom
 H      0.8417627543      0.2873592653      1.1812396788
 C      0.5810508266      0.1349083838      0.1236084081
 H      1.0751167820      0.9175169816     -0.4710290041
 H      1.0594994016     -0.8437374131     -0.1438670903
 C     -0.9135868223      0.1479141920     -0.0828334551
 H     -1.3645291542     -0.6531194981      0.4713710964
 H     -1.3240715147      1.0583893226      0.2973274632
 H     -1.1491395322     -0.0158196496     -1.1167045247
8
# ORCA AIMD Position Step 44, t=22.00 fs, E_Pot=-78.30270953 Hartree, Unit is Angstrom
 H      0.8363499771      0.2918941783      1.1857985720
 C      0.5758816117      0.1392018026      0.1270979256
 H      1.0791874312      0.9185026591     -0.4672218496
 H      1.0531394460     -0.8303575597     -0.1301013528
 C     -0.9174134207      0.1498248098     -0.0860374299
 H     -1.3722331792     -0.6486594364      0.4709344589
 H     -1.3264402291      1.0679153154      0.2954611286
 H     -1.1485273593     -0.0163768050     -1.1217805596
8
# ORCA AIMD Position Step 45, t=22.50 fs, E_Pot=-78.30312669 Hartree, Unit is Angstrom
 H      0.8301430361      0.2969851425      1.1889572031
 C      0.5712276273      0.1433944765      0.1306873925
 H      1.0823840455      0.9184639869     -0.4624286019
 H      1.0449688229     -0.8149245364     -0.1165590784
 C     -0.9212897980      0.1516319255     -0.0891713639
 H     -1.3805738682     -0.6452511451      0.4712071531
 H     -1.3297355158      1.0787274085      0.2928034534
 H     -1.1487119537     -0.0160693211     -1.1281197693
8
# ORCA AIMD Position Step 46, t=23.00 fs, E_Pot=-78.30329353 Hartree, Unit is Angstrom
 H      0.8230624769      0.3027080824      1.1907872511
 C      0.5670579631      0.1475670420      0.1344027091
 H      1.0845727263      0.9174551519     -0.4566642125
 H      1.0355433930     -0.7986884701     -0.1036296025
 C     -0.9252473786      0.1533931534     -0.0922136484
 H     -1.3894189204     -0.6427026473      0.4720203894
 H     -1.3337171350      1.0900578649      0.2890032485
 H     -1.1496465477     -0.0148650592     -1.1354384493
8
# ORCA AIMD Position Step 47, t=23.50 fs, E_Pot=-78.30309591 Hartree, Unit is Angstrom
 H      0.8150858265      0.3091390578      1.1915166838
 C      0.5633139023      0.1518069830      0.1382653466
 H      1.0857121019      0.9156508661     -0.4500435616
 H      1.0255435497     -0.7831010231     -0.0917159572
 C     -0.9293204286      0.1551605641     -0.0951491532
 H     -1.3985896763     -0.6407330291      0.4731402177
 H     -1.3381356528      1.1011269973      0.2837473710
 H     -1.1512469961     -0.0127450382     -1.1433387346
8
# ORCA AIMD Position Step 48, t=24.00 fs, E_Pot=-78.30262203 Hartree, Unit is Angstrom
 H      0.8062447611      0.3163499468      1.1915134327
 C      0.5599156318      0.1561970363      0.1422899051
 H      1.0858548500      0.9133380332     -0.4427771619
 H      1.0156982978     -0.7696622420     -0.0811922137
 C     -0.9335409864      0.1569769681     -0.0979705108
 H     -1.4078801042     -0.6390091166      0.4742936985
 H     -1.3427677912      1.1112293998      0.2767957931
 H     -1.1534024246     -0.0097094830     -1.1513557956
8
# ORCA AIMD Position Step 49, t=24.50 fs, E_Pot=-78.30213749 Hartree, Unit is Angstrom
 H      0.7966178732      0.3244027276      1.1912544773
 C      0.5567726799      0.1607999315      0.1464814609
 H      1.0851405432      0.9108965477     -0.4351582008
 H      1.0066811394     -0.7597117793     -0.0723518177
 C     -0.9379344842      0.1588742484     -0.1006783102
 H     -1.4170789601     -0.6371857727      0.4751986560
 H     -1.3474425477      1.1198000165      0.2680054164
 H     -1.1559868931     -0.0057841098     -1.1590109145
8
# ORCA AIMD Position Step 50, t=25.00 fs, E_Pot=-78.30195113 Hartree, Unit is Angstrom
 H      0.7863194290      0.3333424177      1.1912802286
 C      0.5537965319      0.1656422781      0.1508333007
 H      1.0837788399      0.9087683665     -0.4275400267
 H      0.9989961819     -0.7541974512     -0.0653555417
 C     -0.9425163149      0.1608732111     -0.1032804135
 H     -1.4259919198     -0.6349441683      0.4755927646
 H     -1.3520580394      1.1264588404      0.2573426607
 H     -1.1588705601     -0.0010255196     -1.1658631308
8
# ORCA AIMD Position Step 51, t=25.50 fs, E_Pot=-78.30223847 Hartree, Unit is Angstrom
 H      0.7754850456      0.3431888797      1.1921356558
 C      0.5509124912      0.1707029177      0.1553260305
 H      1.0820226395      0.9074147160     -0.4203036605
 H      0.9928875042     -0.7534844160     -0.0601932839
 C     -0.9472893886      0.1629843252     -0.1057906790
 H     -1.4344611351     -0.6320240844      0.4752587486
 H     -1.3565901747      1.1310363799      0.2448864896
 H     -1.1619292275      0.0044750370     -1.1715539986
8
# ORCA AIMD Position Step 52, t=26.00 fs, E_Pot=-78.30293963 Hartree, Unit is Angstrom
 H      0.7642558985      0.3539280960      1.1943025491
 C      0.5480676181      0.1759113250      0.1599289595
 H      1.0801323468      0.9072634564     -0.4138164701
 H      0.9883050782     -0.7572735871     -0.0566738071
 C     -0.9522426552      0.1652089045     -0.1082273408
 H     -1.4423806046     -0.6282481696      0.4740438038
 H     -1.3610942779      1.1335824742      0.2308236822
 H     -1.1650516333      0.0105898874     -1.1758422766
8
# ORCA AIMD Position Step 53, t=26.50 fs, E_Pot=-78.30379993 Hartree, Unit is Angstrom
 H      0.7527637186      0.3655040918      1.1981312685
 C      0.5452330519      0.1811583580      0.1646038930
 H      1.0783349424      0.9086521876     -0.4083859081
 H      0.9849401847     -0.7646627788     -0.0544480670
 C     -0.9573506210      0.1675405865     -0.1106112019
 H     -1.4497065342     -0.6235374371      0.4718724089
 H     -1.3657001990      1.1343595401      0.2154374194
 H     -1.1681442655      0.0171553241     -1.1786271102
8
# ORCA AIMD Position Step 54, t=27.00 fs, E_Pot=-78.30450957 Hartree, Unit is Angstrom
 H      0.7411191605      0.3778131821      1.2037837906
 C      0.5424013018      0.1863164019      0.1693104048
 H      1.0767845005      0.9117764570     -0.4042154442
 H      0.9823137669     -0.7743261053     -0.0530591479
 C     -0.9625739815      0.1699672462     -0.1129637258
 H     -1.4564622788     -0.6179178805      0.4687522485
 H     -1.3706007154      1.1338191816      0.1990894116
 H     -1.1711337352      0.0239742733     -1.1799590688
8