9
# ORCA AIMD Position Step 0, t=0.00 fs, E_Pot=-152.13306596 Hartree, Unit is Angstrom
 H     -2.0663636125      0.4349440647      0.0739317474
 C     -1.2200309413     -0.2396123455     -0.0109544633
 H     -1.2713675673     -0.9574549063      0.8029737787
 C      0.1032305271      0.5595279751      0.0458924456
 O      1.2661383941     -0.2616609612     -0.1289932649
 H      0.1498082846      1.1155194010      0.9908186695
 H      1.2280406873     -0.8957656590      0.6318632462
 H      0.1182467878      1.2928593301     -0.7652797606
 H     -1.2977025731     -0.7783568978     -0.9502523954
9
# ORCA AIMD Position Step 1, t=0.50 fs, E_Pot=-152.13281517 Hartree, Unit is Angstrom
 H     -2.0595344109      0.4343141809      0.0778570430
 C     -1.2219115591     -0.2348474121     -0.0061001042
 H     -1.2631611774     -0.9579984299      0.8034163822
 C      0.1054127499      0.5559510743      0.0476337920
 O      1.2626972808     -0.2603181792     -0.1306857129
 H      0.1406849440      1.1227045130      0.9869225732
 H      1.2306359085     -0.9018663741      0.6281220575
 H      0.1244217949      1.2870989081     -0.7667069520
 H     -1.3092455440     -0.7750382797     -0.9504590756
9
# ORCA AIMD Position Step 2, t=1.00 fs, E_Pot=-152.13213172 Hartree, Unit is Angstrom
 H     -2.0535835772      0.4344163600      0.0820532591
 C     -1.2237145500     -0.2301984420     -0.0013251170
 H     -1.2551523876     -0.9584901705      0.8039168853
 C      0.1075335829      0.5524472020      0.0493518202
 O      1.2592973673     -0.2590244765     -0.1323472542
 H      0.1318217723      1.1297433907      0.9831059957
 H      1.2332092645     -0.9076399203      0.6240448477
 H      0.1304963060      1.2813121084     -0.7680858198
 H     -1.3206255763     -0.7714171289     -0.9501239117
9
# ORCA AIMD Position Step 3, t=1.50 fs, E_Pot=-152.13120852 Hartree, Unit is Angstrom
 H     -2.0492965488      0.4359235198      0.0867840890
 C     -1.2253724495     -0.2257659413      0.0033067665
 H     -1.2475225424     -0.9588754195      0.8045251843
 C      0.1095360203      0.5490844705      0.0510276761
 O      1.2559748927     -0.2578247230     -0.1339531452
 H      0.1234599901      1.1364935701      0.9794271296
 H      1.2357410698     -0.9128086338      0.6193470312
 H      0.1363745036      1.2754745183     -0.7693742882
 H     -1.3316998467     -0.7672347692     -0.9487863780
9
# ORCA AIMD Position Step 4, t=2.00 fs, E_Pot=-152.13028164 Hartree, Unit is Angstrom
 H     -2.0472496694      0.4393416202      0.0922822146
 C     -1.2268353627     -0.2216295393      0.0077464342
 H     -1.2404442026     -0.9590987264      0.8052835321
 C      0.1113649648      0.5459286557      0.0526452609
 O      1.2527659055     -0.2567582622     -0.1354856082
 H      0.1158302782      1.1428128564      0.9759303439
 H      1.2382062817     -0.9171790908      0.6138477354
 H      0.1419601580      1.2695804283     -0.7705434940
 H     -1.3423390426     -0.7623085890     -0.9461188883
9
# ORCA AIMD Position Step 5, t=2.50 fs, E_Pot=-152.12952335 Hartree, Unit is Angstrom
 H     -2.0477026974      0.4449204861      0.0987325987
 C     -1.2280798860     -0.2178382762      0.0119634712
 H     -1.2340766130     -0.9591088172      0.8062292949
 C      0.1129689938      0.5430410042      0.0541913177
 O      1.2497052986     -0.2558564914     -0.1369357128
 H      0.1091475202      1.1485658589      0.9726511223
 H      1.2405758689     -0.9206701219      0.6074979547
 H      0.1471579359      1.2636484119     -0.7715826304
 H     -1.3524365524     -0.7565498276     -0.9419605507
9
# ORCA AIMD Position Step 6, t=3.00 fs, E_Pot=-152.12897246 Hartree, Unit is Angstrom
 H     -2.0505442697      0.4526061853      0.1062602122
 C     -1.2291136009     -0.2144053198      0.0159483216
 H     -1.2285615006     -0.9588631513      0.8073973446
 C      0.1143020104      0.5404762128      0.0556552006
 O      1.2468258308     -0.2551414135     -0.1383040788
 H      0.1036057665      1.1536312950      0.9696221828
 H      1.2428188293     -0.9233254405      0.6003903350
 H      0.1518747590      1.2577242768     -0.7725013229
 H     -1.3619160435     -0.7499709577     -0.9363327424
9
# ORCA AIMD Position Step 7, t=3.50 fs, E_Pot=-152.12854324 Hartree, Unit is Angstrom
 H     -2.0553086613      0.4620503994      0.1149244242
 C     -1.2299736024     -0.2113083843      0.0197125755
 H     -1.2240193087     -0.9583312019      0.8088210097
 C      0.1153246749      0.5382805559      0.0570283780
 O      1.2441571852     -0.2546252376     -0.1396004618
 H      0.0993735945      1.1579093474      0.9668794111
 H      1.2449048711     -0.9253087829      0.5927518063
 H      0.1560212562      1.2518810769     -0.7733293989
 H     -1.3707373168     -0.7426832423     -0.9294376297
9
# ORCA AIMD Position Step 8, t=4.00 fs, E_Pot=-152.12810330 Hartree, Unit is Angstrom
 H     -2.0612586723      0.4726731900      0.1247193062
 C     -1.2307194600     -0.2084957161      0.0232874110
 H     -1.2205466296     -0.9574953486      0.8105313351
 C      0.1160056142      0.5364908536      0.0583039929
 O      1.2417251843     -0.2543111471     -0.1408420749
 H      0.0965897422      1.1613278550      0.9644670282
 H      1.2468043706     -0.9268851583      0.5849144751
 H      0.1595132062      1.2462165105     -0.7741137556
 H     -1.3788985705     -0.7348853127     -0.9216400058
9
# ORCA AIMD Position Step 9, t=4.50 fs, E_Pot=-152.12756881 Hartree, Unit is Angstrom
 H     -2.0675080649      0.4837594852      0.1355809202
 C     -1.2314230513     -0.2058956940      0.0267202774
 H     -1.2182140327     -0.9563504413      0.8125546567
 C      0.1163222694      0.5351334683      0.0594762595
 O      1.2395511409     -0.2541951123     -0.1420510570
 H      0.0953597232      1.1638471049      0.9624402668
 H      1.2484892397     -0.9283828232      0.5772743639
 H      0.1622731326      1.2408474944     -0.7749130160
 H     -1.3864361185     -0.7268424050     -0.9134324414
9
# ORCA AIMD Position Step 10, t=5.00 fs, E_Pot=-152.12696263 Hartree, Unit is Angstrom
 H     -2.0731509802      0.4945632572      0.1473986583
 C     -1.2321580402     -0.2034279744      0.0300698801
 H     -1.2170648654     -0.9549020621      0.8149094237
 C      0.1162614176      0.5342240086      0.0605400064
 O      1.2376514473     -0.2542686684     -0.1432511313
 H      0.0957533918      1.1654621862      0.9608655051
 H      1.2499318784     -0.9301428923      0.5702365069
 H      0.1642319116      1.2359026982     -0.7757901524
 H     -1.3934195287     -0.7188570128     -0.9053837142
9
# ORCA AIMD Position Step 11, t=5.50 fs, E_Pot=-152.12641044 Hartree, Unit is Angstrom
 H     -2.0773730223      0.5043990395      0.1600289021
 C     -1.2329912244     -0.2010142643      0.0333997270
 H     -1.2171148151     -0.9531644311      0.8176031145
 C      0.1158193594      0.5337676170      0.0614903693
 O      1.2360374121     -0.2545222621     -0.1444639306
 H      0.0978037315      1.1662025284      0.9598174519
 H      1.2511029209     -0.9324619177      0.5641548336
 H      0.1653303123      1.2315137013     -0.7768038218
 H     -1.3999420520     -0.7112323693     -0.8980726365
9
# ORCA AIMD Position Step 12, t=6.00 fs, E_Pot=-152.12608417 Hartree, Unit is Angstrom
 H     -2.0795324146      0.5127109055      0.1733093081
 C     -1.2339767008     -0.1985875752      0.0367707946
 H     -1.2183521079     -0.9511586320      0.8206299763
 C      0.1150018126      0.5337597965      0.0623226744
 O      1.2347153049     -0.2549485449     -0.1457056173
 H      0.1015068969      1.1661284495      0.9593734174
 H      1.2519684433     -0.9355373952      0.5592771738
 H      0.1655203828      1.2278056763     -0.7779993233
 H     -1.4061069807     -0.7042321816     -0.8920131596
9
# ORCA AIMD Position Step 13, t=6.50 fs, E_Pot=-152.12612362 Hartree, Unit is Angstrom
 H     -2.0792111562      0.5191181616      0.1870725845
 C     -1.2351526977     -0.1960993898      0.0402342365
 H     -1.2207382042     -0.9489115518      0.8239699986
 C      0.1138235768      0.5341876629      0.0630325361
 O      1.2336865210     -0.2555448566     -0.1469844954
 H      0.1068233478      1.1653248889      0.9596050280
 H      1.2524876271     -0.9394279876      0.5557068655
 H      0.1647666236      1.2248885780     -0.7794002295
 H     -1.4120119648     -0.6980422928     -0.8875811648
9
# ORCA AIMD Position Step 14, t=7.00 fs, E_Pot=-152.12657183 Hartree, Unit is Angstrom
 H     -2.0762418690      0.5234417498      0.2011591797
 C     -1.2365403180     -0.1935244622      0.0438253152
 H     -1.2242088780     -0.9464556242      0.8275892000
 C      0.1123080379      0.5350314528      0.0636161722
 O      1.2329477604     -0.2563142552     -0.1483001630
 H      0.1136797666      1.1638928733      0.9605680967
 H      1.2526119249     -0.9440383672      0.5533899211
 H      0.1630469294      1.2228497714     -0.7810017818
 H     -1.4177345129     -0.6927413709     -0.8849564738
9
# ORCA AIMD Position Step 15, t=7.50 fs, E_Pot=-152.12735077 Hartree, Unit is Angstrom
 H     -2.0707164611      0.5257158870      0.2154286243
 C     -1.2381433767     -0.1908630662      0.0475596891
 H     -1.2286756387     -0.9438292330      0.8314410864
 C      0.1104865617      0.5362660986      0.0640709152
 O      1.2324911480     -0.2572648138     -0.1496443883
 H      0.1219713968      1.1619396429      0.9622917369
 H      1.2522863687     -0.9491328118      0.5521306640
 H      0.1603533162      1.2217488493     -0.7827670101
 H     -1.4233221860     -0.6882871145     -0.8840929254
9
# ORCA AIMD Position Step 16, t=8.00 fs, E_Pot=-152.12828537 Hartree, Unit is Angstrom
 H     -2.0629798823      0.5261872744      0.2297692104
 C     -1.2399488387     -0.1881405934      0.0514327452
 H     -1.2340275409     -0.9410775112      0.8354690496
 C      0.1083977947      0.5378626909      0.0643958624
 O      1.2323042843     -0.2584073858     -0.1510034463
 H      0.1315644958      1.1595686620      0.9647681579
 H      1.2514529654     -0.9543741607      0.5516314760
 H      0.1566924509      1.2216151146     -0.7846262449
 H     -1.4287899497     -0.6845213937     -0.8847238962
9
# ORCA AIMD Position Step 17, t=8.50 fs, E_Pot=-152.12916457 Hartree, Unit is Angstrom
 H     -2.0536081841      0.5253008721      0.2441051937
 C     -1.2419278847     -0.1854045135      0.0554219884
 H     -1.2401335039     -0.9382532363      0.8396094861
 C      0.1060868593      0.5397896956      0.0645925700
 O      1.2323702839     -0.2597524326     -0.1523613251
 H      0.1422987520      1.1568708925      0.9679447959
 H      1.2500554460     -0.9593787246      0.5515468874
 H      0.1520859890      1.2224478583     -0.7864802616
 H     -1.4341250862     -0.6811931874     -0.8864020574
9
# ORCA AIMD Position Step 18, t=9.00 fs, E_Pot=-152.12981540 Hartree, Unit is Angstrom
 H     -2.0433666360      0.5236681779      0.2583998552
 C     -1.2440381152     -0.1827188167      0.0594918789
 H     -1.2468452824     -0.9354175469      0.8437954350
 C      0.1036044164      0.5420138430      0.0646656675
 O      1.2326678903     -0.2613066553     -0.1537031085
 H      0.1539897318      1.1539186255      0.9717203943
 H      1.2480442567     -0.9637754620      0.5515406108
 H      0.1465706949      1.2242192197     -0.7882068021
 H     -1.4392979069     -0.6779940676     -0.8885641074
9
# ORCA AIMD Position Step 19, t=9.50 fs, E_Pot=-152.13016284 Hartree, Unit is Angstrom
 H     -2.0331425663      0.5220127103      0.2726518923
 C     -1.2462275997     -0.1801561302      0.0636002167
 H     -1.2540011898     -0.9326402109      0.8479604987
 C      0.1010055634      0.5445006694      0.0646232616
 O      1.2331717562     -0.2630700818     -0.1550179524
 H      0.1664316125      1.1507628096      0.9759462656
 H      1.2453807190     -0.9672591244      0.5513359386
 H      0.1401982991      1.2268791154     -0.7896697559
 H     -1.4442752185     -0.6745989875     -0.8906069773
9
# ORCA AIMD Position Step 20, t=10.00 fs, E_Pot=-152.13025119 Hartree, Unit is Angstrom
 H     -2.0238507555      0.5210897179      0.2868824997
 C     -1.2484412194     -0.1777878690      0.0677052119
 H     -1.2614305700     -0.9299991617      0.8520427046
 C      0.0983485560      0.5472147403      0.0644770175
 O      1.2338529340     -0.2650340409     -0.1563012807
 H      0.1794005551      1.1474342328      0.9804332604
 H      1.2420396435     -0.9696304248      0.5507533607
 H      0.1330350505      1.2303615154     -0.7907299361
 H     -1.4490334570     -0.6707055906     -0.8919624918
9
# ORCA AIMD Position Step 21, t=10.50 fs, E_Pot=-152.13021341 Hartree, Unit is Angstrom
 H     -2.0163176108      0.5215842921      0.3011121367
 C     -1.2506289588     -0.1756732109      0.0717725523
 H     -1.2689588771     -0.9275789924      0.8559878377
 C      0.0956933569      0.5501196277      0.0642418635
 O      1.2346795728     -0.2671802288     -0.1575560148
 H      0.1926590368      1.1439482473      0.9849640805
 H      1.2380101486     -0.9708196622      0.5497324336
 H      0.1251609414      1.2345912430     -0.7912562332
 H     -1.4535693228     -0.6660672761     -0.8921611407
9
# ORCA AIMD Position Step 22, t=11.00 fs, E_Pot=-152.13019637 Hartree, Unit is Angstrom
 H     -2.0111622894      0.5240029940      0.3153298499
 C     -1.2527546962     -0.1738483978      0.0757818308
 H     -1.2764131013     -0.9254681267      0.8597517204
 C      0.0931000365      0.5531777379      0.0639353244
 O      1.2356177728     -0.2694809180     -0.1587927736
 H      0.2059613236      1.1403121355      0.9893097370
 H      1.2332948518     -0.9708925561      0.5483369348
 H      0.1166686093      1.2394904904     -0.7911359678
 H     -1.4579069547     -0.6605175386     -0.8908800227
9
# ORCA AIMD Position Step 23, t=11.50 fs, E_Pot=-152.13027839 Hartree, Unit is Angstrom
 H     -2.0087025143      0.5285838954      0.3294629667
 C     -1.2548031604     -0.1723185260      0.0797315533
 H     -1.2836271975     -0.9237545375      0.8633010185
 C      0.0906270633      0.5563501058      0.0635765540
 O      1.2366325186     -0.2719002838     -0.1600290366
 H      0.2190600612      1.1365338454      0.9932483673
 H      1.2279079311     -0.9700382908      0.5467432522
 H      0.1076619290      1.2449843469     -0.7902834550
 H     -1.4621016013     -0.6539847502     -0.8879732940
9
# ORCA AIMD Position Step 24, t=12.00 fs, E_Pot=-152.13042802 Hartree, Unit is Angstrom
 H     -2.0089121587      0.5352511360      0.3433579192
 C     -1.2567827730     -0.1710539852      0.0836418223
 H     -1.2904471448     -0.9225201953      0.8666124383
 C      0.0883295392      0.5595962673      0.0631851738
 O      1.2376886050     -0.2743967691     -0.1612873013
 H      0.2317137680      1.1326307319      0.9965843959
 H      1.2218727909     -0.9685406472      0.5452125472
 H      0.0982543082      1.2510048156     -0.7886460643
 H     -1.4662401286     -0.6464973285     -0.8834849360
9
# ORCA AIMD Position Step 25, t=12.50 fs, E_Pot=-152.13053084 Hartree, Unit is Angstrom
 H     -2.0114433935      0.5436285882      0.3567808214
 C     -1.2587233309     -0.1699926979      0.0875539566
 H     -1.2967352785     -0.9218348337      0.8696705755
 C      0.0862574619      0.5628743123      0.0627800359
 O      1.2387514627     -0.2769263327     -0.1625923438
 H      0.2436948493      1.1286370856      0.9991661035
 H      1.2152202236     -0.9667345138      0.5440484161
 H      0.0885666986      1.2574929959     -0.7862073429
 H     -1.4704385678     -0.6381793657     -0.8776436689
9
# ORCA AIMD Position Step 26, t=13.00 fs, E_Pot=-152.13046489 Hartree, Unit is Angstrom
 H     -2.0157046640      0.5531076457      0.3694394082
 C     -1.2606693582     -0.1690476469      0.0915268271
 H     -1.3023736009     -0.9217499518      0.8724650267
 C      0.0844541248      0.5661411874      0.0623780265
 O      1.2397878023     -0.2794462629     -0.1639678399
 H      0.2547976271      1.1246095176      1.0008999383
 H      1.2079879580     -0.9649525554      0.5435441516
 H      0.0787253670      1.2643993082     -0.7829870472
 H     -1.4748365188     -0.6292367466     -0.8708392816
9
# ORCA AIMD Position Step 27, t=13.50 fs, E_Pot=-152.13017450 Hartree, Unit is Angstrom
 H     -2.0209693846      0.5629476229      0.3810199800
 C     -1.2626713641     -0.1681177713      0.0956303075
 H     -1.3072659223     -0.9222940394      0.8749875982
 C      0.0829548164      0.5693532528      0.0619930303
 O      1.2407660751     -0.2819189861     -0.1654327913
 H      0.2648455371      1.1206296868      1.0017602037
 H      1.2002211168     -0.9634706483      0.5439267249
 H      0.0688595356      1.2716818077     -0.7790381943
 H     -1.4795877816     -0.6199341543     -0.8635795716
9
# ORCA AIMD Position Step 28, t=14.00 fs, E_Pot=-152.12970100 Hartree, Unit is Angstrom
 H     -2.0264867691      0.5723825750      0.3912297034
 C     -1.2647774537     -0.1670999313      0.0999367504
 H     -1.3113387341     -0.9234697643      0.8772301133
 C      0.0817858330      0.5724671952      0.0616351049
 O      1.2416564709     -0.2843154045     -0.1669984819
 H      0.2736978128      1.1168037143      1.0017932883
 H      1.1919780206     -0.9624600603      0.5453089652
 H      0.0590990424      1.2793028556     -0.7744416051
 H     -1.4848473677     -0.6105636654     -0.8564288232
9
# ORCA AIMD Position Step 29, t=14.50 fs, E_Pot=-152.12916167 Hartree, Unit is Angstrom
 H     -2.0315750474      0.5807141218      0.3998342516
 C     -1.2670269679     -0.1658999177      0.1045114998
 H     -1.3145411500     -0.9252533761      0.8791835334
 C      0.0809640502      0.5754410795      0.0613100277
 O      1.2424308809     -0.2866167390     -0.1686664936
 H      0.2812536441      1.1132586303      1.0011155332
 H      1.1833337325     -0.9619607161      0.5476589258
 H      0.0495722090      1.2872244747     -0.7692984951
 H     -1.4907544392     -0.6014085018     -0.8499318267
9
# ORCA AIMD Position Step 30, t=15.00 fs, E_Pot=-152.12869613 Hartree, Unit is Angstrom
 H     -2.0356887972      0.5873811978      0.4066862455
 C     -1.2694466291     -0.1644414151      0.1094036734
 H     -1.3168441205     -0.9275960479      0.8808382470
 C      0.0804969682      0.5782356013      0.0610192789
 O      1.2430626641     -0.2888146894     -0.1704283635
 H      0.2874542258      1.1101356753      0.9999046167
 H      1.1743842452     -0.9618795453      0.5507953958
 H      0.0404041053      1.2954029839     -0.7637221444
 H     -1.4974133239     -0.5927064022     -0.8445329514
9
# ORCA AIMD Position Step 31, t=15.50 fs, E_Pot=-152.12840818 Hartree, Unit is Angstrom
 H     -2.0384616553      0.5920063513      0.4117432191
 C     -1.2720487632     -0.1626723873      0.1146384856
 H     -1.3182392823     -0.9304265583      0.8821853148
 C      0.0803832069      0.5808154424      0.0607605423
 O      1.2435264208     -0.2909098529     -0.1722669421
 H      0.2922821877      1.1075807784      0.9983845555
 H      1.1652483651     -0.9620147358      0.5544106515
 H      0.0317152849      1.3037835968     -0.7578296588
 H     -1.5048755248     -0.5846191981     -0.8405042471
9
# ORCA AIMD Position Step 32, t=16.00 fs, E_Pot=-152.12832629 Hartree, Unit is Angstrom
 H     -2.0397296864      0.5944226638      0.4150762792
 C     -1.2748307621     -0.1605687441      0.1202123463
 H     -1.3187377149     -0.9336546470      0.8832182544
 C      0.0806133500      0.5831506497      0.0605287556
 O      1.2437978964     -0.2929088327     -0.1741591215
 H      0.2957584093      1.1057327155      0.9968050479
 H      1.1560660303     -0.9620994983      0.5581150737
 H      0.0236209636      1.3122957559     -0.7517348235
 H     -1.5131266111     -0.5772149122     -0.8378980289
9
# ORCA AIMD Position Step 33, t=16.50 fs, E_Pot=-152.12839471 Hartree, Unit is Angstrom
 H     -2.0395403843      0.5946855367      0.4168710842
 C     -1.2777750356     -0.1581353422      0.1260916148
 H     -1.3183687446     -0.9371745669      0.8839349876
 C      0.0811710123      0.5852179490      0.0603176640
 O      1.2438540842     -0.2948207226     -0.1760793266
 H      0.2979365693      1.1047097826      0.9954166551
 H      1.1469928178     -0.9618550885      0.5614937583
 H      0.0162304992      1.3208499506     -0.7455428639
 H     -1.5220814483     -0.5704662600     -0.8365355074
9
# ORCA AIMD Position Step 34, t=17.00 fs, E_Pot=-152.12849629 Hartree, Unit is Angstrom
 H     -2.0381493995      0.5930710633      0.4174221800
 C     -1.2808491513     -0.1554044611      0.1322152542
 H     -1.3171786654     -0.9408688591      0.8843395843
 C      0.0820339817      0.5870018324      0.0601216135
 O      1.2436735005     -0.2966536489     -0.1780030611
 H      0.2988965596      1.1045959419      0.9944442272
 H      1.1381920814     -0.9610423632      0.5641644369
 H      0.0096467907      1.3293367075     -0.7393474047
 H     -1.5315895674     -0.5642651467     -0.8360343992
9
# ORCA AIMD Position Step 35, t=17.50 fs, E_Pot=-152.12849808 Hartree, Unit is Angstrom
 H     -2.0360034837      0.5900595211      0.4171196548
 C     -1.2840063393     -0.1524320126      0.1385007014
 H     -1.3152297179     -0.9446118400      0.8844444757
 C      0.0831754058      0.5884954671      0.0599378001
 O      1.2432366973     -0.2984119450     -0.1799101554
 H      0.2987361698      1.1054291642      0.9940616326
 H      1.1298234015     -0.9595053998      0.5658277818
 H      0.0039661176      1.3376278037     -0.7332305053
 H     -1.5414491915     -0.5584496441     -0.8358682646
9
# ORCA AIMD Position Step 36, t=18.00 fs, E_Pot=-152.12830493 Hartree, Unit is Angstrom
 H     -2.0337046767      0.5862990094      0.4164280112
 C     -1.2871871309     -0.1492914901      0.1448520899
 H     -1.3125984435     -0.9482741556      0.8842723389
 C      0.0845648093      0.5897010552      0.0597679989
 O      1.2425267431     -0.3000941980     -0.1817871170
 H      0.2975646463      1.1071920818      0.9943715118
 H      1.1220330995     -0.9572006592      0.5663047699
 H     -0.0007228258      1.3455801270     -0.7272643145
 H     -1.5514279649     -0.5528358515     -0.8354440735
9
# ORCA AIMD Position Step 37, t=18.50 fs, E_Pot=-152.12790274 Hartree, Unit is Angstrom
 H     -2.0319500801      0.5825440023      0.4158554308
 C     -1.2903229395     -0.1460657573      0.1511695058
 H     -1.3093735950     -0.9517280926      0.8838583773
 C      0.0861689642      0.5906296637      0.0596198731
 O      1.2415297191     -0.3016923182     -0.1836285632
 H      0.2954975597      1.1098077222      0.9953932665
 H      1.1149454471     -0.9542111418      0.5655580398
 H     -0.0043400822      1.3530416116     -0.7215145076
 H     -1.5612859780     -0.5472491043     -0.8341826090
9
# ORCA AIMD Position Step 38, t=19.00 fs, E_Pot=-152.12737210 Hartree, Unit is Angstrom
 H     -2.0314445249      0.5795667342      0.4159139999
 C     -1.2933421184     -0.1428368622      0.1573582600
 H     -1.3056533568     -0.9548537957      0.8832527684
 C      0.0879525711      0.5913004335      0.0595075292
 O      1.2402351102     -0.3031916429     -0.1854376020
 H      0.2926539575      1.1131411741      0.9970614461
 H      1.1086565554     -0.9507447690      0.5636957410
 H     -0.0068159051      1.3598586927     -0.7160445755
 H     -1.5707979081     -0.5415499581     -0.8315898209
9
# ORCA AIMD Position Step 39, t=19.50 fs, E_Pot=-152.12685870 Hartree, Unit is Angstrom
 H     -2.0327918604      0.5780479191      0.4170742681
 C     -1.2961781839     -0.1396746438      0.1633373310
 H     -1.3015418770     -0.9575459100      0.8825228844
 C      0.0898787483      0.5917391899      0.0594512147
 O      1.2386360210     -0.3045720597     -0.1872250984
 H      0.2891558307      1.1170074074      0.9992349391
 H      1.1032319565     -0.9471169853      0.5609570311
 H     -0.0080924732      1.3658845021     -0.7109201683
 H     -1.5797720861     -0.5356528559     -0.8273123290
9
# ORCA AIMD Position Step 40, t=20.00 fs, E_Pot=-152.12650645 Hartree, Unit is Angstrom
 H     -2.0363826765      0.5784652097      0.4197210079
 C     -1.2987787418     -0.1366258049      0.1690462330
 H     -1.2971453042     -0.9597196638      0.8817545973
 C      0.0919093590      0.5919765689      0.0594762145
 O      1.2367291661     -0.3058101031     -0.1890077992
 H      0.2851293538      1.1211844998      1.0017154995
 H      1.0987085315     -0.9437180394      0.5576790395
 H     -0.0081257273      1.3709869760     -0.7062127546
 H     -1.5880654772     -0.5295371415     -0.8211747297
9
# ORCA AIMD Position Step 41, t=20.50 fs, E_Pot=-152.12638563 Hartree, Unit is Angstrom
 H     -2.0423061381      0.5810069759      0.4241190612
 C     -1.3011127402     -0.1337058449      0.1744496302
 H     -1.2925676844     -0.9613151156      0.8810518392
 C      0.0940052197      0.5920458526      0.0596111268
 O      1.2345146203     -0.3068819096     -0.1908054006
 H      0.2807070003      1.1254307343      1.0042726982
 H      1.0951008013     -0.9409666571      0.5542468171
 H     -0.0068872093      1.3750561070     -0.7020019843
 H     -1.5955942965     -0.5232509151     -0.8131988460
9
# ORCA AIMD Position Step 42, t=21.00 fs, E_Pot=-152.12646004 Hartree, Unit is Angstrom
 H     -2.0503131127      0.5855375465      0.4303967790
 C     -1.3031737084     -0.1308961144      0.1795391818
 H     -1.2879071346     -0.9622983953      0.8805337094
 C      0.0961262552      0.5919807426      0.0598857646
 O      1.2319953634     -0.3077667581     -0.1926368448
 H      0.2760295614      1.1295036253      1.0066717253
 H      1.0924106065     -0.9392543184      0.5510310540
 H     -0.0043657826      1.3780096940     -0.6983762814
 H     -1.6023401136     -0.5169083175     -0.8036055375
9
# ORCA AIMD Position Step 43, t=21.50 fs, E_Pot=-152.12661483 Hartree, Unit is Angstrom
 H     -2.0598434637      0.5916252127      0.4385496645
 C     -1.3049778987     -0.1281469775      0.1843324316
 H     -1.2832526410     -0.9626593227      0.8803288215
 C      0.0982316753      0.5918132954      0.0603289210
 O      1.2291767172     -0.3084507154     -0.1945164113
 H      0.2712472882      1.1331789268      1.0087006033
 H      1.0906380228     -0.9388877431      0.5483227013
 H     -0.0005690952      1.3797970814     -0.6954313545
 H     -1.6083509436     -0.5106805330     -0.7927989112
9
# ORCA AIMD Position Step 44, t=22.00 fs, E_Pot=-152.12672604 Hartree, Unit is Angstrom
 H     -2.0701087390      0.5986230456      0.4484608957
 C     -1.3065581444     -0.1253862373      0.1888689304
 H     -1.2786816891     -0.9624056275      0.8805671812
 C      0.1002802463      0.5915722052      0.0609661992
 O      1.2260658224     -0.3089297221     -0.1964503925
 H      0.2665197073      1.1362679488      1.0101940169
 H      1.0897904664     -0.9400400448      0.5462772815
 H      0.0044753636      1.3804005299     -0.6932664873
 H     -1.6137363084     -0.5047804892     -0.7813318546
9
# ORCA AIMD Position Step 45, t=22.50 fs, E_Pot=-152.12672882 Hartree, Unit is Angstrom
 H     -2.0802050711      0.6057772746      0.4599316111
 C     -1.3079556652     -0.1225306279      0.1932040495
 H     -1.2742587673     -0.9615548373      0.8813704732
 C      0.1022307121      0.5912815625      0.0618180517
 O      1.2226713092     -0.3092114313     -0.1984351714
 H      0.2620140173      1.1386318853      1.0110517841
 H      1.0898869780     -0.9427213294      0.5448821040
 H      0.0107197380      1.3798340405     -0.6919786740
 H     -1.6186550742     -0.4994412450     -0.7698519376
9
# ORCA AIMD Position Step 46, t=23.00 fs, E_Pot=-152.12664979 Hartree, Unit is Angstrom
 H     -2.0892280073      0.6123359154      0.4727136124
 C     -1.3092122693     -0.1194979027      0.1974010909
 H     -1.2700346685     -0.9601254584      0.8828420356
 C      0.1040423883      0.5909601590      0.0628981396
 O      1.2190032598     -0.3093153299     -0.2004572407
 H      0.2579022276      1.1401921938      1.0112507140
 H      1.0909559611     -0.9467760303      0.5439552063
 H      0.0180958511      1.3781396993     -0.6916548850
 H     -1.6232955009     -0.4948886651     -0.7590289027
9
# ORCA AIMD Position Step 47, t=23.50 fs, E_Pot=-152.12659331 Hartree, Unit is Angstrom
 H     -2.0963693339      0.6176390275      0.4865394510
 C     -1.3103645559     -0.1162176569      0.2015224704
 H     -1.2660464298     -0.9581292149      0.8850578881
 C      0.1056759191      0.5906213617      0.0642121111
 O      1.2150734488     -0.3092710901     -0.2024951935
 H      0.2543573064      1.1409363278      1.0108490991
 H      1.0930268183     -0.9519077676      0.5431766625
 H      0.0265157388      1.3753819341     -0.6923629878
 H     -1.6278486395     -0.4913103236     -0.7494695015
9
# ORCA AIMD Position Step 48, t=24.00 fs, E_Pot=-152.12669187 Hartree, Unit is Angstrom
 H     -2.1009879890      0.6211836665      0.5011477660
 C     -1.3114405033     -0.1126398564      0.2056210132
 H     -1.2623177016     -0.9555658449      0.8880599735
 C      0.1070941684      0.5902735277      0.0657569034
 O      1.2108957394     -0.3091155296     -0.2045231939
 H      0.2515485874      1.1409182907      1.0099833865
 H      1.0961179630     -0.9577257223      0.5421444406
 H      0.0358724859      1.3716404148     -0.6941420996
 H     -1.6324786735     -0.4888244471     -0.7416313298
9
# ORCA AIMD Position Step 49, t=24.50 fs, E_Pot=-152.12704297 Hartree, Unit is Angstrom
 H     -2.1026563037      0.6226651343      0.5163038507
 C     -1.3124578683     -0.1087406609      0.2097326581
 H     -1.2588593265     -0.9524214244      0.8918523707
 C      0.1082632054      0.5899208971      0.0675206883
 O      1.2064864649     -0.3088888286     -0.2065151312
 H      0.2496365924      1.1402536391      1.0088567919