4
# ORCA AIMD Position Step 0, t=0.00 fs, E_Pot=-112.35434685 Hartree, Unit is Angstrom
 H      1.0829889357     -0.1406667528      1.0411054143
 C      0.5908760295      0.0154301106      0.0681197090
 H      1.2827578243      0.2001415431     -0.7687942010
 O     -0.6174227790     -0.0158049006     -0.0711309211
4
# ORCA AIMD Position Step 1, t=0.50 fs, E_Pot=-112.35425171 Hartree, Unit is Angstrom
 H      1.0856929322     -0.1413071434      1.0422030904
 C      0.5860091432      0.0194790859      0.0700249601
 H      1.2866589215      0.1995762198     -0.7707238038
 O     -0.6191609865     -0.0186481620     -0.0722042455
4
# ORCA AIMD Position Step 2, t=1.00 fs, E_Pot=-112.35400625 Hartree, Unit is Angstrom
 H      1.0881129966     -0.1418241236      1.0431104632
 C      0.5812222535      0.0235453838      0.0719182023
 H      1.2900161105      0.1989930260     -0.7721438717
 O     -0.6209479554     -0.0215100882     -0.0732861658
4
# ORCA AIMD Position Step 3, t=1.50 fs, E_Pot=-112.35368038 Hartree, Unit is Angstrom
 H      1.0899730847     -0.1421004937      1.0436573189
 C      0.5766254438      0.0276138227      0.0737755360
 H      1.2923287809      0.1983912256     -0.7726032641
 O     -0.6228167549     -0.0243866349     -0.0743764786
4
# ORCA AIMD Position Step 4, t=2.00 fs, E_Pot=-112.35336074 Hartree, Unit is Angstrom
 H      1.0910301127     -0.1420272545      1.0437258413
 C      0.5723130263      0.0316680394      0.0755783557
 H      1.2931993538      0.1977982875     -0.7717686190
 O     -0.6247972792     -0.0272741290     -0.0754748296
4
# ORCA AIMD Position Step 5, t=2.50 fs, E_Pot=-112.35312090 Hartree, Unit is Angstrom
 H      1.0910898835     -0.1415087781      1.0432686532
 C      0.5683571486      0.0356906528      0.0773140060
 H      1.2923643713      0.1972723021     -0.7694532105
 O     -0.6269144325     -0.0301692170     -0.0765805236
4
# ORCA AIMD Position Step 6, t=3.00 fs, E_Pot=-112.35299835 Hartree, Unit is Angstrom
 H      1.0900198934     -0.1404681801      1.0423204509
 C      0.5648029486      0.0396636454      0.0789759314
 H      1.2897151198      0.1969008540     -0.7656332247
 O     -0.6291865810     -0.0330687425     -0.0776923453
4
# ORCA AIMD Position Step 7, t=3.50 fs, E_Pot=-112.35298466 Hartree, Unit is Angstrom
 H      1.0877534066     -0.1388476990      1.0409982693
 C      0.5616663163      0.0435683555      0.0805635474
 H      1.2853024722      0.1967988234     -0.7604491891
 O     -0.6316243890     -0.0359695793     -0.0788083920
4
# ORCA AIMD Position Step 8, t=4.00 fs, E_Pot=-112.35303140 Hartree, Unit is Angstrom
 H      1.0842933804     -0.1366108782      1.0394988701
 C      0.5589327289      0.0473859417      0.0820819502
 H      1.2793377663      0.1971038297     -0.7542010305
 O     -0.6342301919     -0.0388685561     -0.0799260058
4
# ORCA AIMD Position Step 9, t=4.50 fs, E_Pot=-112.35307087 Hartree, Unit is Angstrom
 H      1.0797093791     -0.1337420441      1.0380865315
 C      0.5565585756      0.0510976442      0.0835413890
 H      1.2721800870      0.1979702684     -0.7473298879
 O     -0.6369979534     -0.0417623118     -0.0810417570
4
# ORCA AIMD Position Step 10, t=5.00 fs, E_Pot=-112.35304561 Hartree, Unit is Angstrom
 H      1.0741312886     -0.1302437298      1.0370755539
 C      0.5544743670      0.0546847449      0.0849561542
 H      1.2643123289      0.1995622274     -0.7403875382
 O     -0.6399137571     -0.0446469811     -0.0821514334
4
# ORCA AIMD Position Step 11, t=5.50 fs, E_Pot=-112.35293736 Hartree, Unit is Angstrom
 H      1.0677289386     -0.1261320938      1.0367957868
 C      0.5525919857      0.0581298068      0.0863432629
 H      1.2562909341      0.2020420807     -0.7339812657
 O     -0.6429568173     -0.0475186953     -0.0832503549
4
# ORCA AIMD Position Step 12, t=6.00 fs, E_Pot=-112.35277982 Hartree, Unit is Angstrom
 H      1.0606957924     -0.1214307580      1.0375613748
 C      0.5508126193      0.0614170031      0.0877198375
 H      1.2486893930      0.2055591867     -0.7287087192
 O     -0.6461008855     -0.0503735037     -0.0843335378
4
# ORCA AIMD Position Step 13, t=6.50 fs, E_Pot=-112.35264688 Hartree, Unit is Angstrom
 H      1.0532278445     -0.1161638963      1.0396340980
 C      0.5490365542      0.0645328716      0.0890998725
 H      1.2420278634      0.2102362138     -0.7250786656
 O     -0.6493158732     -0.0532075140     -0.0853959485
4
# ORCA AIMD Position Step 14, t=7.00 fs, E_Pot=-112.35261713 Hartree, Unit is Angstrom
 H      1.0455028632     -0.1103495941      1.0431883511
 C      0.5471730892      0.0674671362      0.0904908300
 H      1.2367022210      0.2161552159     -0.7234313754
 O     -0.6525695238     -0.0560170491     -0.0864327570
4
# ORCA AIMD Position Step 15, t=7.50 fs, E_Pot=-112.35273108 Hartree, Unit is Angstrom
 H      1.0376630006     -0.1039947148      1.0482829459
 C      0.5451489242      0.0702134670      0.0918909934
 H      1.2329270830      0.2233456254     -0.7238753555
 O     -0.6558289927     -0.0587987861     -0.0874395615
4
# ORCA AIMD Position Step 16, t=8.00 fs, E_Pot=-112.35296561 Hartree, Unit is Angstrom
 H      1.0298033399     -0.0970927768      1.0548445661
 C      0.5429135470      0.0727700067      0.0932885409
 H      1.2307066505      0.2317763794     -0.7262570019
 O     -0.6590622680     -0.0615497902     -0.0884125667
4
# ORCA AIMD Position Step 17, t=8.50 fs, E_Pot=-112.35324189 Hartree, Unit is Angstrom
 H      1.0219679260     -0.0896247445      1.0626667684
 C      0.5404406601      0.0751398849      0.0946629042
 H      1.2298407109      0.2413549234     -0.7301728190
 O     -0.6622392998     -0.0642677904     -0.0893487749
4
# ORCA AIMD Position Step 18, t=9.00 fs, E_Pot=-112.35346236 Hartree, Unit is Angstrom
 H      1.0141551115     -0.0815634605      1.0714258997
 C      0.5377258379      0.0773310407      0.0959879870
 H      1.2299649977      0.2519330989     -0.7350221493
 O     -0.6653330777     -0.0669511386     -0.0902460858
4
# ORCA AIMD Position Step 19, t=9.50 fs, E_Pot=-112.35355539 Hartree, Unit is Angstrom
 H      1.0063272473     -0.0728795819      1.0807094931
 C      0.5347816705      0.0793558420      0.0972364670
 H      1.2306106923      0.2633194312     -0.7400856367
 O     -0.6683203464     -0.0695989241     -0.0911033719
4
# ORCA AIMD Position Step 20, t=10.00 fs, E_Pot=-112.35350472 Hartree, Unit is Angstrom
 H      0.9984249456     -0.0635487910      1.0900544138
 C      0.5316317296      0.0812305130      0.0983840350
 H      1.2312714678      0.2752952002     -0.7446127010
 O     -0.6711822486     -0.0722111010     -0.0919205493
4
# ORCA AIMD Position Step 21, t=10.50 fs, E_Pot=-112.35335244 Hartree, Unit is Angstrom
 H      0.9903827509     -0.0535588133      1.0989890538
 C      0.5283046276      0.0829743942      0.0994126952
 H      1.2314652140      0.2876318083     -0.7479023054
 O     -0.6739048143     -0.0747885826     -0.0926986211
4
# ORCA AIMD Position Step 22, t=11.00 fs, E_Pot=-112.35317882 Hartree, Unit is Angstrom
 H      0.9821439925     -0.0429150863      1.1070745198
 C      0.5248289719      0.0846091180      0.1003127659
 H      1.2307834258      0.3001074467     -0.7493676797
 O     -0.6764792896     -0.0773333141     -0.0934396922
4
# ORCA AIMD Position Step 23, t=11.50 fs, E_Pot=-112.35307024 Hartree, Unit is Angstrom
 H      0.9736731943     -0.0316445056      1.1139408710
 C      0.5212295577      0.0861577499      0.1010836697
 H      1.2289262994      0.3125217902     -0.7485821186
 O     -0.6789023070     -0.0798483166     -0.0941469580
4
# ORCA AIMD Position Step 24, t=12.00 fs, E_Pot=-112.35308780 Hartree, Unit is Angstrom
 H      0.9649651615     -0.0197970992      1.1193160566
 C      0.5175247861      0.0876439062      0.1017338369
 H      1.2257248615      0.3247082505     -0.7453073507
 O     -0.6811759038     -0.0823376913     -0.0948246685
4
# ORCA AIMD Position Step 25, t=12.50 fs, E_Pot=-112.35324584 Hartree, Unit is Angstrom
 H      0.9560504683     -0.0074459323      1.1230464835
 C      0.5137251462      0.0890908531      0.1022800718
 H      1.2211525665      0.3365437146     -0.7395075119
 O     -0.6833074081     -0.0848065645     -0.0954780708
4
# ORCA AIMD Position Step 26, t=13.00 fs, E_Pot=-112.35350580 Hartree, Unit is Angstrom
 H      0.9469977042      0.0053147872      1.1251091412
 C      0.5098326085      0.0905207005      0.1027466302
 H      1.2153285561      0.3479561145     -0.7313511276
 O     -0.6853092562     -0.0872610797     -0.0961133604
4
# ORCA AIMD Position Step 27, t=13.50 fs, E_Pot=-112.35378702 Hartree, Unit is Angstrom
 H      0.9379103678      0.0183735382      1.1256131254
 C      0.5058409706      0.0919537183      0.1031640558
 H      1.2085100176      0.3589287352     -0.7212004802
 O     -0.6871985093     -0.0897083995     -0.0967375774
4
# ORCA AIMD Position Step 28, t=14.00 fs, E_Pot=-112.35399250 Hartree, Unit is Angstrom
 H      0.9289218854      0.0316054126      1.1247932140
 C      0.5017370810      0.0934077366      0.1035676591
 H      1.2010763661      0.3695003605     -0.7095890291
 O     -0.6889964275     -0.0921565116     -0.0973584844
4
# ORCA AIMD Position Step 29, t=14.50 fs, E_Pot=-112.35404318 Hartree, Unit is Angstrom
 H      0.9201870265      0.0448774912      1.1229933535
 C      0.4975032297      0.0948980348      0.1039955053
 H      1.1935004994      0.3797599826     -0.6971829838
 O     -0.6907279305     -0.0946141515     -0.0979844361
4
# ORCA AIMD Position Step 30, t=15.00 fs, E_Pot=-112.35390959 Hartree, Unit is Angstrom
 H      0.9118699367      0.0580544752      1.1206396204
 C      0.4931208442      0.0964378332      0.1044857594
 H      1.1863049429      0.3898338422     -0.6847250025
 O     -0.6924209225     -0.0970907078     -0.0986242250
4
# ORCA AIMD Position Step 31, t=15.50 fs, E_Pot=-112.35362685 Hartree, Unit is Angstrom
 H      0.9041294339      0.0710039774      1.1182030387
 C      0.4885754731      0.0980394843      0.1050734433
 H      1.1800032225      0.3998636956     -0.6729611654
 O     -0.6941055128     -0.0995960782     -0.0992868993
4
# ORCA AIMD Position Step 32, t=16.00 fs, E_Pot=-112.35328243 Hartree, Unit is Angstrom
 H      0.8971025392      0.0836009915      1.1161542504
 C      0.4838626003      0.0997163088      0.1057869974
 H      1.1750313838      0.4099774513     -0.6625579786
 O     -0.6958131258     -0.1021404770     -0.0999815491
4
# ORCA AIMD Position Step 33, t=16.50 fs, E_Pot=-112.35297835 Hartree, Unit is Angstrom
 H      0.8908878646      0.0957310131      1.1149142392
 C      0.4789932812      0.1014847378      0.1066453840
 H      1.1716803912      0.4202565119     -0.6540224602
 O     -0.6975754895     -0.1047341812     -0.1007170579
4
# ORCA AIMD Position Step 34, t=17.00 fs, E_Pot=-112.35278516 Hartree, Unit is Angstrom
 H      0.8855310158      0.1072913197      1.1148073383
 C      0.4739981753      0.1033661404      0.1076565928
 H      1.1700441193      0.4307070340     -0.6476419494
 O     -0.6994234733     -0.1073871718     -0.1015018119
4
# ORCA AIMD Position Step 35, t=17.50 fs, E_Pot=-112.35271296 Hartree, Unit is Angstrom
 H      0.8810141819      0.1181909166      1.1160240620
 C      0.4689285048      0.1053877932      0.1088181633
 H      1.1699965245      0.4412434144     -0.6434581720
 O     -0.7013856719     -0.1101088193     -0.1023433868
4
# ORCA AIMD Position Step 36, t=18.00 fs, E_Pot=-112.35271562 Hartree, Unit is Angstrom
 H      0.8772540699      0.1283501629      1.1186016798
 C      0.4638532625      0.1075823026      0.1101195928
 H      1.1712070682      0.4516898419     -0.6412815616
 O     -0.7034870844     -0.1129075255     -0.1032482338
4
# ORCA AIMD Position Step 37, t=18.50 fs, E_Pot=-112.35272346 Hartree, Unit is Angstrom
 H      0.8741061972      0.1376995579      1.1224237413
 C      0.4588530098      0.1099854735      0.1115459079
 H      1.1731871638      0.4617984358     -0.6407393209
 O     -0.7057475994     -0.1157901910     -0.1042213058
4
# ORCA AIMD Position Step 38, t=19.00 fs, E_Pot=-112.35268381 Hartree, Unit is Angstrom
 H      0.8713770070      0.1461800358      1.1272401428
 C      0.4540113085      0.1126331962      0.1130812695
 H      1.1753576432      0.4712802996     -0.6413437198
 O     -0.7081805527     -0.1187618544     -0.1052657271
4
# ORCA AIMD Position Step 39, t=19.50 fs, E_Pot=-112.35258757 Hartree, Unit is Angstrom
 H      0.8688420691      0.1537440682      1.1327031837
 C      0.4494053831      0.1155578835      0.1147116584
 H      1.1771219314      0.4798414810     -0.6425645678
 O     -0.7107914871     -0.1218253513     -0.1063825135
4
# ORCA AIMD Position Step 40, t=20.00 fs, E_Pot=-112.35247143 Hartree, Unit is Angstrom
 H      0.8662674978      0.1603576918      1.1384129144
 C      0.4450975285      0.1187850699      0.1164262050
 H      1.1779322421      0.4872168862     -0.6438937051
 O     -0.7135772516     -0.1249810259     -0.1075703636
4
# ORCA AIMD Position Step 41, t=20.50 fs, E_Pot=-112.35239906 Hartree, Unit is Angstrom
 H      0.8634315619      0.1660031016      1.1439644572
 C      0.4411283160      0.1223306200      0.1182172838
 H      1.1773416539      0.4931976906     -0.6448952522
 O     -0.7165255647     -0.1282265246     -0.1088255433
4
# ORCA AIMD Position Step 42, t=21.00 fs, E_Pot=-112.35243218 Hartree, Unit is Angstrom
 H      0.8601439310      0.1706812036      1.1489912921
 C      0.4375121047      0.1261987504      0.1200798145
 H      1.1750401907      0.4976505926     -0.6452406635
 O     -0.7196151239     -0.1315566850     -0.1101418806
4
# ORCA AIMD Position Step 43, t=21.50 fs, E_Pot=-112.35260364 Hartree, Unit is Angstrom
 H      0.8562608953      0.1744133428      1.1532006790
 C      0.4342349263      0.1303808777      0.1220102627
 H      1.1708762815      0.5005291677     -0.6447305958
 O     -0.7228162835     -0.1349634966     -0.1115108715
4
# ORCA AIMD Position Step 44, t=22.00 fs, E_Pot=-112.35290128 Hartree, Unit is Angstrom
 H      0.8516963202      0.1772419456      1.1563997271
 C      0.4312545737      0.1348554278      0.1240057472
 H      1.1648664540      0.5018786456     -0.6433061399
 O     -0.7260923511     -0.1384363007     -0.1129219499
4
# ORCA AIMD Position Step 45, t=22.50 fs, E_Pot=-112.35326752 Hartree, Unit is Angstrom
 H      0.8464256073      0.1792296566      1.1585096762
 C      0.4285027774      0.1395884543      0.1260633708
 H      1.1571918426      0.5018334448     -0.6410500642
 O     -0.7294011737     -0.1419620469     -0.1143628103
4
# ORCA AIMD Position Step 46, t=23.00 fs, E_Pot=-112.35361483 Hartree, Unit is Angstrom
 H      0.8404866634      0.1804580324      1.1595720210
 C      0.4258890253      0.1445347690      0.1281796423
 H      1.1481865333      0.5006098790     -0.6381794538
 O     -0.7326972762     -0.1455256009     -0.1158198278
4
# ORCA AIMD Position Step 47, t=23.50 fs, E_Pot=-112.35385398 Hartree, Unit is Angstrom
 H      0.8339726759      0.1810239712      1.1597400227
 C      0.4233065442      0.1496406526      0.1303501555
 H      1.1383089108      0.4984902790     -0.6350241499
 O     -0.7359340798     -0.1491105554     -0.1172786411
4
# ORCA AIMD Position Step 48, t=24.00 fs, E_Pot=-112.35392531 Hartree, Unit is Angstrom
 H      0.8270284238      0.1810386305      1.1592722487
 C      0.4206382210      0.1548456752      0.1325683491
 H      1.1281109887      0.4958056423     -0.6319987348
 O     -0.7390662227     -0.1526994332     -0.1187245768
4
# ORCA AIMD Position Step 49, t=24.50 fs, E_Pot=-112.35382380 Hartree, Unit is Angstrom
 H      0.8198342246      0.1806218584      1.1585037122
 C      0.4177654330      0.1600868330      0.1348244619
 H      1.1181818089      0.4929058818     -0.6295514238
 O     -0.7420516971     -0.1562745669     -0.1201432621
4
# ORCA AIMD Position Step 50, t=25.00 fs, E_Pot=-112.35360360 Hartree, Unit is Angstrom
 H      0.8125885822      0.1798977122      1.1578105995
 C      0.4145773380      0.1653026042      0.1371039335
 H      1.1090828073      0.4901272118     -0.6281011466
 O     -0.7448537625     -0.1598188026     -0.1215211591
4
# ORCA AIMD Position Step 51, t=25.50 fs, E_Pot=-112.35335703 Hartree, Unit is Angstrom
 H      0.8054882426      0.1789904498      1.1575672337
 C      0.4109802345      0.1704369177      0.1393858273
 H      1.1012794347      0.4877592445     -0.6279680850
 O     -0.7474424952     -0.1633161529     -0.1228460405
4
# ORCA AIMD Position Step 52, t=26.00 fs, E_Pot=-112.35317489 Hartree, Unit is Angstrom
 H      0.7987075083      0.1780214194      1.1580994011
 C      0.4069058075      0.1754424300      0.1416419799
 H      1.0950809845      0.4860178677     -0.6293105341
 O     -0.7497959292     -0.1667523504     -0.1241073862
4
# ORCA AIMD Position Step 53, t=26.50 fs, E_Pot=-112.35310724 Hartree, Unit is Angstrom
 H      0.7923792225      0.1771070984      1.1596401539
 C      0.4023170037      0.1802825375      0.1438376283
 H      1.0906016787      0.4850297864     -0.6320833203
 O     -0.7519008051     -0.1701152614     -0.1252966893
4
# ORCA AIMD Position Step 54, t=27.00 fs, E_Pot=-112.35314501 Hartree, Unit is Angstrom
 H      0.7865799268      0.1763582515      1.1622951919
 C      0.3972105814      0.1849320002      0.1459339530
 H      1.0877520797      0.4848319300     -0.6360295798
 O     -0.7537529558     -0.1733952649     -0.1264077061
4
# ORCA AIMD Position Step 55, t=27.50 fs, E_Pot=-112.35323117 Hartree, Unit is Angstrom
 H      0.7813208140      0.1758798147      1.1660239794
 C      0.3916159891      0.1893764557      0.1478922935
 H      1.0862614686      0.4853846730     -0.6407088419
 O     -0.7553572393     -0.1765857150     -0.1274366651
4
# ORCA AIMD Position Step 56, t=28.00 fs, E_Pot=-112.35329285 Hartree, Unit is Angstrom
 H      0.7765460509      0.1757708495      1.1706405867
 C      0.3855913276      0.1936104788      0.1496788971
 H      1.0857243872      0.4865946384     -0.6455540183
 O     -0.7567272890     -0.1796829196     -0.1283822982
4
# ORCA AIMD Position Step 57, t=28.50 fs, E_Pot=-112.35327582 Hartree, Unit is Angstrom
 H      0.7721375429      0.1761249765      1.1758323715
 C      0.3792176618      0.1976352874      0.1512692355
 H      1.0856578454      0.4883404863     -0.6499418314
 O     -0.7578851419     -0.1826860694     -0.1292458204
4
# ORCA AIMD Position Step 58, t=29.00 fs, E_Pot=-112.35316683 Hartree, Unit is Angstrom
 H      0.7679380831      0.1770281178      1.1812121625
 C      0.3725896072      0.2014573733      0.1526506712
 H      1.0855754442      0.4905017182     -0.6532749831
 O     -0.7588603313     -0.1855978825     -0.1300310412
4
# ORCA AIMD Position Step 59, t=29.50 fs, E_Pot=-112.35299375 Hartree, Unit is Angstrom
 H      0.7637581740      0.1785587316      1.1863498444
 C      0.3658105474      0.2050861550      0.1538237129
 H      1.0850251276      0.4929742013     -0.6550337994
 O     -0.7596891557     -0.1884238339     -0.1307440398
4
# ORCA AIMD Position Step 60, t=30.00 fs, E_Pot=-112.35281115 Hartree, Unit is Angstrom
 H      0.7594043221      0.1807843929      1.1908348597
 C      0.3589838510      0.2085332100      0.1548012472
 H      1.0836425704      0.4956875060     -0.6548310561
 O     -0.7604132775     -0.1911724545     -0.1313930692
4
# ORCA AIMD Position Step 61, t=30.50 fs, E_Pot=-112.35267655 Hartree, Unit is Angstrom
 H      0.7546949534      0.1837601529      1.1943172227
 C      0.3522075888      0.2118111303      0.1556068877
 H      1.0811758974      0.4986124001     -0.6524389147
 O     -0.7610783378     -0.1938548407     -0.1319882026
4
# ORCA AIMD Position Step 62, t=31.00 fs, E_Pot=-112.35262813 Hartree, Unit is Angstrom
 H      0.7494764166      0.1875268182      1.1965439889
 C      0.3455695553      0.2149326785      0.1562726430
 H      1.0775030007      0.5017649850     -0.6478038458
 O     -0.7617323051     -0.1964841729     -0.1325409406
4
# ORCA AIMD Position Step 63, t=31.50 fs, E_Pot=-112.35267056 Hartree, Unit is Angstrom
 H      0.7436353097      0.1921098051      1.1973852558
 C      0.3391432292      0.2179100101      0.1568363460
 H      1.0726390538      0.5052074691     -0.6410492649
 O     -0.7624236525     -0.1990751094     -0.1330637566
4
# ORCA AIMD Position Step 64, t=32.00 fs, E_Pot=-112.35277314 Hartree, Unit is Angstrom
 H      0.7371069155      0.1975183316      1.1968492029
 C      0.3329847619      0.2207539179      0.1573390306
 H      1.0667350482      0.5090458580     -0.6324672047
 O     -0.7631994819     -0.2016430244     -0.1335696019
4
# ORCA AIMD Position Step 65, t=32.50 fs, E_Pot=-112.35288135 Hartree, Unit is Angstrom
 H      0.7298796705      0.2037457741      1.1950865513
 C      0.3271309969      0.2234734178      0.1578223017
 H      1.0600668671      0.5134248895     -0.6224990184
 O     -0.7641035863     -0.2042034006     -0.1340714317
4
# ORCA AIMD Position Step 66, t=33.00 fs, E_Pot=-112.35293910 Hartree, Unit is Angstrom
 H      0.7219933392      0.2107708073      1.1923823387
 C      0.3215991541      0.2260753576      0.1583255940
 H      1.0530105890      0.5185185629     -0.6117029767
 O     -0.7651745231     -0.2067710117     -0.1345816712
4
# ORCA AIMD Position Step 67, t=33.50 fs, E_Pot=-112.35291430 Hartree, Unit is Angstrom
 H      0.7135343373      0.2185592897      1.1891378111
 C      0.3163881711      0.2285644435      0.1588833068
 H      1.0460066858      0.5245163651     -0.6007091888
 O     -0.7664440841     -0.2093591929     -0.1351117629
4
# ORCA AIMD Position Step 68, t=34.00 fs, E_Pot=-112.35281753 Hartree, Unit is Angstrom
 H      0.7046255470      0.2270669507      1.1858394271
 C      0.3114819805      0.2309438681      0.1595219605
 H      1.0395098881      0.5316040438     -0.5901610783
 O     -0.7679359951     -0.2119792692     -0.1356717641
4
# ORCA AIMD Position Step 69, t=34.50 fs, E_Pot=-112.35270325 Hartree, Unit is Angstrom
 H      0.6954115396      0.2362420730      1.1830155199
 C      0.3068545612      0.2332164797      0.1602577245
 H      1.0339288618      0.5399394609     -0.5806477786
 O     -0.7696650202     -0.2146400800     -0.1362700173
4
# ORCA AIMD Position Step 70, t=35.00 fs, E_Pot=-112.35264914 Hartree, Unit is Angstrom
 H      0.6860400923      0.2460278536      1.1811824560
 C      0.3024761071      0.2353863515      0.1610949084
 H      1.0295637387      0.5496260252     -0.5726362455
 O     -0.7716365175     -0.2173476313     -0.1369129004
4
# ORCA AIMD Position Step 71, t=35.50 fs, E_Pot=-112.35272073 Hartree, Unit is Angstrom
 H      0.6766419864      0.2563638512      1.1807849939
 C      0.2983191317      0.2374604353      0.1620260554
 H      1.0265535929      0.5606881087     -0.5664154588
 O     -0.7738464248     -0.2201048798     -0.1376046566
4
# ORCA AIMD Position Step 72, t=36.00 fs, E_Pot=-112.35293831 Hartree, Unit is Angstrom
 H      0.6673121810      0.2671859332      1.1821386444
 C      0.2943631184      0.2394498568      0.1630340128
 H      1.0248465870      0.5730539141     -0.5620650251
 O     -0.7762816283     -0.2229116244     -0.1383472976
4
# ORCA AIMD Position Step 73, t=36.50 fs, E_Pot=-112.35326376 Hartree, Unit is Angstrom
 H      0.6580957522      0.2784243618      1.1853838167
 C      0.2905965799      0.2413704674      0.1640957781
 H      1.0242008656      0.5865505004     -0.5594556687
 O     -0.7789205993     -0.2257644877     -0.1391405771
4
# ORCA AIMD Position Step 74, t=37.00 fs, E_Pot=-112.35361447 Hartree, Unit is Angstrom
 H      0.6489822012      0.2900017515      1.1904619135
 C      0.2870160450      0.2432425333      0.1651872446
 H      1.0242171309      0.6009136471     -0.5582810622
 O     -0.7817342532     -0.2286571777     -0.1399820455
4
# ORCA AIMD Position Step 75, t=37.50 fs, E_Pot=-112.35389651 Hartree, Unit is Angstrom
 H      0.6399098860      0.3018302549      1.1971184243
 C      0.2836226409      0.2450893487      0.1662876715
 H      1.0243946289      0.6158099790     -0.5581120453
 O     -0.7846871535     -0.2315806641     -0.1408671878
4
# ORCA AIMD Position Step 76, t=38.00 fs, E_Pot=-112.35404007 Hartree, Unit is Angstrom
 H      0.6307782234      0.3138100241      1.2049322788
 C      0.2804172585      0.2469352726      0.1673828308
 H      1.0241961134      0.6308670116     -0.5584604310
 O     -0.7877387569     -0.2345235000     -0.1417896139
4
# ORCA AIMD Position Step 77, t=38.50 fs, E_Pot=-112.35402214 Hartree, Unit is Angstrom
 H      0.6214660184      0.3258299703      1.2133663409
 C      0.2773955024      0.2488035387      0.1684663169
 H      1.0231107614      0.6457059779     -0.5588406870
 O     -0.7908448019     -0.2374722927     -0.1427413336
4
# ORCA AIMD Position Step 78, t=39.00 fs, E_Pot=-112.35386913 Hartree, Unit is Angstrom
 H      0.6118519388      0.3377707700      1.2218291942
 C      0.2745434732      0.2507141574      0.1695391615
 H      1.0207062690      0.6599726245     -0.5588214934
 O     -0.7939588003     -0.2404122557     -0.1437131064
4
# ORCA AIMD Position Step 79, t=39.50 fs, E_Pot=-112.35364187 Hartree, Unit is Angstrom
 H      0.6018334918      0.3495098128      1.2297381743
 C      0.2718349454      0.2526821361      0.1706082815
 H      1.0166664220      0.6733630473     -0.5580639096
 O     -0.7970335649     -0.2433278107     -0.1446948381
4
# ORCA AIMD Position Step 80, t=40.00 fs, E_Pot=-112.35341090 Hartree, Unit is Angstrom
 H      0.5913420429      0.3609272999      1.2365757655
 C      0.2692301054      0.2547161375      0.1716843994
 H      1.0108141779      0.6856433470     -0.5563462599
 O     -0.8000227196     -0.2462032011     -0.1456760009
4
# ORCA AIMD Position Step 81, t=40.50 fs, E_Pot=-112.35323169 Hartree, Unit is Angstrom
 H      0.5803530483      0.3719125606      1.2419349863
 C      0.2666757463      0.2568176346      0.1727799395
 H      1.0031223823      0.6966632120     -0.5535774827
 O     -0.8028821837     -0.2490231110     -0.1466460720
4
# ORCA AIMD Position Step 82, t=41.00 fs, E_Pot=-112.35312771 Hartree, Unit is Angstrom
 H      0.5688903562      0.3823707138      1.2455511488
 C      0.2641067278      0.2589807227      0.1739071951
 H      0.9937129735      0.7063633086     -0.5498003099
 O     -0.8055714696     -0.2517734101     -0.1475949587
4
# ORCA AIMD Position Step 83, t=41.50 fs, E_Pot=-112.35308610 Hartree, Unit is Angstrom
 H      0.5570260286      0.3922270305      1.2473205006
 C      0.2614485018      0.2611923043      0.1750767485
 H      0.9828463433      0.7147758189     -0.5451855179
 O     -0.8080548561     -0.2544416021     -0.1485133521
4
# ORCA AIMD Position Step 84, t=42.00 fs, E_Pot=-112.35306673 Hartree, Unit is Angstrom
 H      0.5448772487      0.4014310303      1.2473078872
 C      0.2586204817      0.2634328707      0.1762960637
 H      0.9709026715      0.7220192248     -0.5400173815
 O     -0.8103025024     -0.2570173417     -0.1493930722
4
# ORCA AIMD Position Step 85, t=42.50 fs, E_Pot=-112.35302187 Hartree, Unit is Angstrom
 H      0.5325995547      0.4099592699      1.2457421725
 C      0.2555403033      0.2656780455      0.1775681765
 H      0.9583527167      0.7282852762     -0.5346687418
 O     -0.8122913496     -0.2594929495     -0.1502273689
4
# ORCA AIMD Position Step 86, t=43.00 fs, E_Pot=-112.35291982 Hartree, Unit is Angstrom
 H      0.5203774196      0.4178158211      1.2429993233
 C      0.2521289188      0.2679009221      0.1788904311
 H      0.9457182349      0.7338173892     -0.5295649556
 O     -0.8140058519     -0.2618638351     -0.1510111793
4
# ORCA AIMD Position Step 87, t=43.50 fs, E_Pot=-112.35276289 Hartree, Unit is Angstrom
 H      0.5084124092      0.4250303303      1.2395719008
 C      0.2483163957      0.2700751940      0.1802534019
 H      0.9335231976      0.7388805981     -0.5251372178
 O     -0.8154385249     -0.2641288325     -0.1517413360
4
# ORCA AIMD Position Step 88, t=44.00 fs, E_Pot=-112.35259092 Hartree, Unit is Angstrom
 H      0.4969092578      0.4316533492      1.2360244062
 C      0.2440480355      0.2721789033      0.1816403425
 H      0.9222398501      0.7437253726     -0.5217688758
 O     -0.8165902854     -0.2662904388     -0.1524167217
4
# ORCA AIMD Position Step 89, t=44.50 fs, E_Pot=-112.35246677 Hartree, Unit is Angstrom
 H      0.4860605243      0.4377488293      1.2329357547
 C      0.2392901540      0.2741983677      0.1830276587
 H      0.9122368469      0.7485503247     -0.5197420029
 O     -0.8174705645     -0.2683549402     -0.1530383646
4
# ORCA AIMD Position Step 90, t=45.00 fs, E_Pot=-112.35244859 Hartree, Unit is Angstrom
 H      0.4760309110      0.4433842567      1.2308332637
 C      0.2340346766      0.2761316353      0.1843868558
 H      0.9037386368      0.7534708788     -0.5191941094
 O     -0.8180971896     -0.2703324106     -0.1536094707
4
# ORCA AIMD Position Step 91, t=45.50 fs, E_Pot=-112.35256190 Hartree, Unit is Angstrom
 H      0.4669430000      0.4486192280      1.2301262834
 C      0.2283017206      0.2779907229      0.1856880804
 H      0.8968045433      0.7585010194     -0.5200946636
 O     -0.8184960513     -0.2722365238     -0.1541353834
4
# ORCA AIMD Position Step 92, t=46.00 fs, E_Pot=-112.35278540 Hartree, Unit is Angstrom
 H      0.4588660697      0.4534946076      1.2310509128
 C      0.2221393120      0.2798023144      0.1869048265
 H      0.8913316935      0.7635529026     -0.5222475896
 O     -0.8187002898     -0.2740843717     -0.1546234814
4
# ORCA AIMD Position Step 93, t=46.50 fs, E_Pot=-112.35305766 Hartree, Unit is Angstrom
 H      0.4518112083      0.4580256496      1.2336384322
 C      0.2156205688      0.2816061238      0.1880186683
 H      0.8870827978      0.7684552093     -0.5253193180
 O     -0.8187495396     -0.2758959605     -0.1550829804
4
# ORCA AIMD Position Step 94, t=47.00 fs, E_Pot=-112.35330114 Hartree, Unit is Angstrom