23
# ORCA AIMD Position Step 0, t=0.00 fs, E_Pot=-271.20726061 Hartree, Unit is Angstrom
 C      2.0870572973      1.4484489744     -8.9379338806
 C      3.5782960488      1.4302449831     -8.5492298468
 C      4.1870757628      0.0116707590     -8.6127140928
 C      5.6818159954     -0.0060711121     -8.2228684615
 H      1.5075912429      0.8185238395     -8.2694821909
 H      1.6899110422      2.4577695416     -8.8831635888
 H      1.9492921907      1.0835952625     -9.9515005406
 H      4.1316841177      2.0889808409     -9.2160764015
 H      3.6919530337      1.8253308367     -7.5413387525
 H      3.6332807641     -0.6468374161     -7.9460727967
 H      4.0731664061     -0.3831074156     -9.6206367344
 H      5.7953251118      0.3890818737     -7.2149960017
 H      6.2352033401      0.6527843941     -8.8895908436
 C      6.2902010798     -1.4246399276     -8.2864368499
 H      6.1771674499     -1.8200818393     -9.2942479241
 H      5.7372643314     -2.0837962983     -7.6196320059
 C      7.7850752758     -1.4427080320     -7.8965913446
 H      7.8984526513     -1.0475230392     -6.8886566718
 H      8.3383994308     -0.7837810374     -8.5633758409
 C      8.3925006961     -2.8576882968     -7.9598617239
 H      9.4418722301     -2.8361573811     -7.6808741236
 H      7.8743228423     -3.5294428865     -7.2818094686
 H      8.3160922166     -3.2645966679     -8.9639107755
23
# ORCA AIMD Position Step 1, t=0.50 fs, E_Pot=-271.20622605 Hartree, Unit is Angstrom
 C      2.0897494256      1.4487775815     -8.9361133733
 C      3.5777652867      1.4363680102     -8.5428676696
 C      4.1902046655      0.0120267552     -8.6119981189
 C      5.6857331116     -0.0090804795     -8.2199143191
 H      1.4983194559      0.8268755184     -8.2738325412
 H      1.6814511604      2.4665421089     -8.8863811526
 H      1.9536614454      1.0778228974     -9.9545485161
 H      4.1399724167      2.0835810188     -9.2165910809
 H      3.6808442118      1.8298704803     -7.5405172522
 H      3.6367966360     -0.6640701982     -7.9495573584
 H      4.0784363773     -0.3858258654     -9.6288192173
 H      5.7978031153      0.3828811848     -7.2115542617
 H      6.2476757508      0.6481884605     -8.8870621836
 C      6.2868711066     -1.4245411706     -8.2873221357
 H      6.1778405944     -1.8213216032     -9.2853193807
 H      5.7430184918     -2.0891477866     -7.6199048628
 C      7.7858544084     -1.4430839839     -7.8957699871
 H      7.8957827760     -1.0399935793     -6.9013662834
 H      8.3360470918     -0.7664715094     -8.5512046625
 C      8.3939516865     -2.8577893974     -7.9603500047
 H      9.4299209532     -2.8437725721     -7.6846683682
 H      7.8666513914     -3.5307449316     -7.2803889180
 H      8.3186489985     -3.2570909830     -8.9649492132
23
# ORCA AIMD Position Step 2, t=1.00 fs, E_Pot=-271.20347474 Hartree, Unit is Angstrom
 C      2.0923630873      1.4492045952     -8.9343769455
 C      3.5772560307      1.4423869049     -8.5365988778
 C      4.1932812703      0.0123318393     -8.6113017911
 C      5.6896297170     -0.0120420426     -8.2169985994
 H      1.4891609565      0.8349561558     -8.2779162099
 H      1.6735862311      2.4742011975     -8.8897204693
 H      1.9581400240      1.0723413392     -9.9569717596
 H      4.1479968348      2.0783039767     -9.2168383498
 H      3.6700530021      1.8346659568     -7.5390394897
 H      3.6406467185     -0.6805870373     -7.9534371331
 H      4.0837741011     -0.3880203629     -9.6361519072
 H      5.8003135000      0.3767423723     -7.2080529690
 H      6.2598292417      0.6434380260     -8.8842737856
 C      6.2836258172     -1.4244626935     -8.2881188924
 H      6.1783575574     -1.8228149971     -9.2773720600
 H      5.7485920825     -2.0944298796     -7.6201142541
 C      7.7866108632     -1.4434320314     -7.8950416874
 H      7.8931528509     -1.0324025098     -6.9128326751
 H      8.3336280473     -0.7496811177     -8.5392235842
 C      8.3952457558     -2.8579037859     -7.9608229474
 H      9.4195352594     -2.8512720035     -7.6879690511
 H      7.8593606529     -3.5316635568     -7.2794770295
 H      8.3211102171     -3.2497879116     -8.9661807703
23
# ORCA AIMD Position Step 3, t=1.50 fs, E_Pot=-271.19992606 Hartree, Unit is Angstrom
 C      2.0948320780      1.4498121546     -8.9327947466
 C      3.5767885017      1.4482174798     -8.5304950252
 C      4.1962680005      0.0125435091     -8.6106379484
 C      5.6934926387     -0.0149180452     -8.2141490969
 H      1.4802254319      0.8425523390     -8.2815155611
 H      1.6668247608      2.4798442331     -8.8932876744
 H      1.9628311670      1.0673961285     -9.9582440935
 H      4.1555227918      2.0732625534     -9.2165627214
 H      3.6598470940      1.8399542346     -7.5363198102
 H      3.6451181775     -0.6957689680     -7.9580446160
 H      4.0892413207     -0.3892357408     -9.6419357225
 H      5.8028914499      0.3707099133     -7.2044291083
 H      6.2714023737      0.6384034955     -8.8809980005
 C      6.2805382085     -1.4244261421     -8.2887478857
 H      6.1785778278     -1.8247962854     -9.2712850994
 H      5.7538273652     -2.0995848450     -7.6202013989
 C      7.7873258980     -1.4437247005     -7.8944878255
 H      7.8905821311     -1.0246878594     -6.9219437293
 H      8.3310790177     -0.7338744538     -8.5276045114
 C      8.3962429135     -2.8580390024     -7.9612714571
 H      9.4121333905     -2.8585802127     -7.6903243210
 H      7.8527641288     -3.5318878185     -7.2795035396
 H      8.3233918625     -3.2428581755     -8.9677818970
23
# ORCA AIMD Position Step 4, t=2.00 fs, E_Pot=-271.19667023 Hartree, Unit is Angstrom
 C      2.0970993280      1.4506590161     -8.9314210129
 C      3.5763821016      1.4537840657     -8.5246115418
 C      4.1991377684      0.0126330598     -8.6100125259
 C      5.6973058581     -0.0176748229     -8.2113868347
 H      1.4716532995      0.8495064935     -8.2844716611
 H      1.6615710237      2.4828354659     -8.8971634447
 H      1.9678134872      1.0631788448     -9.9579824206
 H      4.1623420314      2.0685815373     -9.2155396147
 H      3.6504580586      1.8459051606     -7.5319345214
 H      3.6504113368     -0.7091021076     -7.9636065586
 H      4.0948761753     -0.3891075846     -9.6456642661
 H      5.8055655998      0.3648196828     -7.2006400779
 H      6.2821793681      0.6330074660     -8.8770644223
 C      6.2776745049     -1.4244586701     -8.2891477390
 H      6.1783882963     -1.8274284798     -9.2677274020
 H      5.7585836824     -2.1045501417     -7.6201196983
 C      7.7879832166     -1.4439313594     -7.8941664380
 H      7.8880656951     -1.0168596109     -6.9278406259
 H      8.3283583767     -0.7194765239     -8.5165345798
 C      8.3968393455     -2.8581954819     -7.9616915593
 H      9.4087749836     -2.8656434613     -7.6913825129
 H      7.8470940653     -3.5312102166     -7.2807841791
 H      8.3254217180     -3.2364456707     -8.9698816293
23
# ORCA AIMD Position Step 5, t=2.50 fs, E_Pot=-271.19448985 Hartree, Unit is Angstrom
 C      2.0991192511      1.4517776332     -8.9302898526
 C      3.5760542799      1.4590218461     -8.5189803674
 C      4.2018759379      0.0125898796     -8.6094235276
 C      5.7010496072     -0.0202842248     -8.2087240300
 H      1.4636217787      0.8557257661     -8.2866946402
 H      1.6581003834      2.4828453494     -8.9014040241
 H      1.9731362601      1.0598113079     -9.9559802126
 H      4.1682874949      2.0644034721     -9.2135929189
 H      3.6420746592      1.8525911464     -7.5256926895
 H      3.6566200429     -0.7202130792     -7.9702231719
 H      4.1006914047     -0.3873789112     -9.6470610444
 H      5.8083558944      0.3590967818     -7.1966705881
 H      6.2920058363      0.6272386072     -8.8723761766
 C      6.2750921232     -1.4245955446     -8.2892836737
 H      6.1777130871     -1.8307625783     -9.2670547306
 H      5.7627409022     -2.1092596464     -7.6198373478
 C      7.7885688500     -1.4440165326     -7.8941016838
 H      7.8855692332     -1.0090452713     -6.9300374802
 H      8.3254573834     -0.7068465652     -8.5062183483
 C      8.3969866812     -2.8583661362     -7.9620832427
 H      9.4099527358     -2.8724233789     -7.6909516332
 H      7.8424776869     -3.5295494653     -7.2834941706
 H      8.3271444059     -3.2306599479     -8.9725434963
23
# ORCA AIMD Position Step 6, t=3.00 fs, E_Pot=-271.19354816 Hartree, Unit is Angstrom
 C      2.1008596547      1.4531736040     -8.9294132670
 C      3.5758193799      1.4638781423     -8.5136061004
 C      4.2044810789      0.0124239885     -8.6088606353
 C      5.7046999667     -0.0227245570     -8.2061630803
 H      1.4563422675      0.8611815302     -8.2881638632
 H      1.6565449097      2.4798653646     -8.9060437257
 H      1.9788174647      1.0573360108     -9.9522237525
 H      4.1732441194      2.0608905291     -9.2106076613
 H      3.6348413043      1.8599709241     -7.5176711960
 H      3.6637222366     -0.7288918384     -7.9778596788
 H      4.1066747397     -0.3839078880     -9.6460966008
 H      5.8112722351      0.3535548487     -7.1925357883
 H      6.3007982158      0.6211582417     -8.8669184646
 C      6.2728384318     -1.4248811145     -8.2891521637
 H      6.1765183204     -1.8347148715     -9.2692547182
 H      5.7662016565     -2.1136456359     -7.6193387507
 C      7.7890707126     -1.4439398274     -7.8942789300
 H      7.8830307805     -1.0015127714     -6.9284813188
 H      8.3224066388     -0.6962576623     -8.4968747347
 C      8.3967016928     -2.8585369691     -7.9624497546
 H      9.4154866902     -2.8788861807     -7.6890310014
 H      7.8389250404     -3.5269595954     -7.2876563391
 H      8.3285249244     -3.2255720185     -8.9757546450
23
# ORCA AIMD Position Step 7, t=3.50 fs, E_Pot=-271.19340845 Hartree, Unit is Angstrom
 C      2.1023034631      1.4548267424     -8.9287812700
 C      3.5756876651      1.4683124614     -8.5084665073
 C      4.2069647529      0.0121670164     -8.6083053213
 C      5.7082290347     -0.0249811111     -8.2036965950
 H      1.4500487338      0.8659008555     -8.2889189456
 H      1.6568867193      2.4742061605     -8.9110980178
 H      1.9848443933      1.0557123802     -9.9468926615
 H      4.1771544768      2.0582220444     -9.2065364034
 H      3.6288604282      1.8678911685     -7.5082046608
 H      3.6715789093     -0.7351031594     -7.9863478328
 H      4.1127908821     -0.3786682364     -9.6429894313
 H      5.8143140018      0.3481968531     -7.1882801023
 H      6.3085466491      0.6148996944     -8.8607593589
 C      6.2709502948     -1.4253674756     -8.2887801668
 H      6.1748112677     -1.8390701991     -9.2739555055
 H      5.7688927118     -2.1176413075     -7.6186248118
 C      7.7894778682     -1.4436583271     -7.8946467349
 H      7.8803697770     -0.9946598528     -6.9235365336
 H      8.3192776067     -0.6878834027     -8.4887296044
 C      8.3960629127     -2.8586881707     -7.9627982530
 H      9.4245626593     -2.8849922147     -7.6858033649
 H      7.8363285369     -3.5236264033     -7.2931429001
 H      8.3295503082     -3.2212135682     -8.9794238326
23
# ORCA AIMD Position Step 8, t=4.00 fs, E_Pot=-271.19334456 Hartree, Unit is Angstrom
 C      2.1034501509      1.4566933793     -8.9283638920
 C      3.5756647508      1.4722954746     -8.5035171476
 C      4.2093504726      0.0118716604     -8.6077314738
 C      5.7116057176     -0.0270463050     -8.2013084228
 H      1.4449787410      0.8699524395     -8.2890440401
 H      1.6589586109      2.4664811146     -8.9165668544
 H      1.9911767016      1.0548189373     -9.9403452779
 H      4.1800187044      2.0565878009     -9.2013987121
 H      3.6241968301      1.8761051590     -7.4978329152
 H      3.6799405772     -0.7389871506     -7.9953962880
 H      4.1189847920     -0.3717429557     -9.6381916589
 H      5.8174704401      0.3430171712     -7.1839718782
 H      6.3153111802      0.6086605586     -8.8540429520
 C      6.2694542407     -1.4261108761     -8.2882192354
 H      6.1726348477     -1.8435109608     -9.2804947154
 H      5.7707657173     -2.1211836636     -7.6177121573
 C      7.7897797095     -1.4431312925     -7.8951249046
 H      7.8775011394     -0.9889709561     -6.9159019299
 H      8.3161795300     -0.6817920734     -8.4820054001
 C      8.3951954819     -2.8587953298     -7.9631414500
 H      9.4358991704     -2.8906902688     -7.6815913434
 H      7.8344742512     -3.5198515351     -7.2996907161
 H      8.3302293161     -3.2175793920     -8.9833890459
23
# ORCA AIMD Position Step 9, t=4.50 fs, E_Pot=-271.19274434 Hartree, Unit is Angstrom
 C      2.1043164409      1.4587099357     -8.9281148737
 C      3.5757516271      1.4758073806     -8.4986989172
 C      4.2116718469      0.0116094503     -8.6071066788
 C      5.7147971624     -0.0289194058     -8.1989755680
 H      1.4413501343      0.8734298581     -8.2886484301
 H      1.6624541441      2.4575713233     -8.9224382307
 H      1.9977517591      1.0544620628     -9.9330883153
 H      4.1818886529      2.0561775177     -9.1952737413
 H      3.6208821743      1.8843034741     -7.4872194694
 H      3.6884616234     -0.7408475504     -8.0046102158
 H      4.1251862362     -0.3633109280     -9.6323572749
 H      5.8207218125      0.3380046061     -7.1796945763
 H      6.3212111624      0.6026880694     -8.8469750265
 C      6.2683670364     -1.4271666202     -8.2875362846
 H      6.1700593566     -1.8476636749     -9.2880282764
 H      5.7717973997     -2.1242166146     -7.6166313084
 C      7.7899653540     -1.4423259948     -7.8956161742
 H      7.8743504202     -0.9849539992     -6.9064874098
 H      8.3132522308     -0.6779486395     -8.4769091380
 C      8.3942494644     -2.8588308051     -7.9634988720
 H      9.4479808350     -2.8959181327     -7.6767948195
 H      7.8330651639     -3.5160238065     -7.3069304386
 H      8.3305903554     -3.2146326329     -8.9874342935
23
# ORCA AIMD Position Step 10, t=5.00 fs, E_Pot=-271.19140627 Hartree, Unit is Angstrom
 C      2.1049356105      1.4607981828     -8.9279768956
 C      3.5759453489      1.4788361906     -8.4939468919
 C      4.2139698277      0.0114665174     -8.6063943840
 C      5.7177707858     -0.0306057679     -8.1966708364
 H      1.4393369835      0.8764346607     -8.2878463540
 H      1.6669513221      2.4485635463     -8.9286919331
 H      2.0044919804      1.0543923548     -9.9257299641
 H      4.1828566914      2.0571673351     -9.1882866540
 H      3.6189186716      1.8921497356     -7.4770592690
 H      3.6967237004     -0.7411252360     -8.0135215090
 H      4.1313156156     -0.3536254795     -9.6262888534
 H      5.8240411407      0.3331459244     -7.1755357228
 H      6.3264080219      0.5972580823     -8.8398017579
 C      6.2676964657     -1.4285835773     -8.2868033815
 H      6.1671733961     -1.8511510893     -9.2956516218
 H      5.7719891414     -2.1266941496     -7.6154238955
 C      7.7900235197     -1.4412231028     -7.8960186894
 H      7.8708664120     -0.9830739717     -6.8962821954
 H      8.3106552553     -0.6762246428     -8.4736196611
 C      8.3933775602     -2.8587655956     -7.9638963316
 H      9.4592880653     -2.9006077976     -7.6718282891
 H      7.8317561701     -3.5125776269     -7.3144294898
 H      8.3306781326     -3.2123121520     -8.9913136816
23
# ORCA AIMD Position Step 11, t=5.50 fs, E_Pot=-271.18962840 Hartree, Unit is Angstrom
 C      2.1053548053      1.4628727565     -8.9278881339
 C      3.5762403261      1.4813763507     -8.4891989911
 C      4.2162889771      0.0115371358     -8.6055571212
 C      5.7204967685     -0.0321155483     -8.1943659803
 H      1.4390481193      0.8790611558     -8.2867384471
 H      1.6719542247      2.4406520108     -8.9353030730
 H      2.0113134491      1.0543290768     -9.9189170074
 H      4.1830402433      2.0597043930     -9.1805903531
 H      3.6182818144      1.8993150278     -7.4679921401
 H      3.7042693031     -0.7403544042     -8.0216306560
 H      4.1372909264     -0.3429846249     -9.6208594662
 H      5.8273963208      0.3284294456     -7.1715751582
 H      6.3310822249      0.5926488696     -8.8327827632
 C      6.2674421909     -1.4303992916     -8.2860885341
 H      6.1640753844     -1.8536392699     -9.3025100727
 H      5.7713658547     -2.1285833942     -7.6141391356
 C      7.7899430005     -1.4398203571     -7.8962371901
 H      7.8670291885     -0.9836970832     -6.8862385550
 H      8.3085538427     -0.6764158438     -8.4722745064
 C      8.3927161801     -2.8585720094     -7.9643630326
 H      9.4684777847     -2.9046924241     -7.6670706627
 H      7.8301992270     -3.5099402732     -7.3217466577
 H      8.3305496717     -3.2105411197     -8.9947796254
23
# ORCA AIMD Position Step 12, t=6.00 fs, E_Pot=-271.18808148 Hartree, Unit is Angstrom
 C      2.1056301407      1.4648511659     -8.9277897537
 C      3.5766300168      1.4834278841     -8.4844034537
 C      4.2186728211      0.0119151723     -8.6045607346
 C      5.7229507731     -0.0334619603     -8.1920350249
 H      1.4405108387      0.8813840535     -8.2853965511
 H      1.6769538887      2.4350009521     -8.9422443698
 H      2.0181346783      1.0539917155     -9.9132598208
 H      4.1825638628      2.0638908955     -9.1723447436
 H      3.6189225489      1.9055068219     -7.4605323751
 H      3.7106452178     -0.7391011448     -8.0284594629
 H      4.1430353653     -0.3316947295     -9.6169111751
 H      5.8307523738      0.3238482306     -7.1678741685
 H      6.3354064742      0.5891120217     -8.8261609943
 C      6.2675966378     -1.4326362891     -8.2854485528
 H      6.1608662696     -1.8548735655     -9.3078855029
 H      5.7699741337     -2.1298673413     -7.6128299311
 C      7.7897136999     -1.4381339772     -7.8961919343
 H      7.8628533781     -0.9870521652     -6.8771821338
 H      8.3071024083     -0.6782666223     -8.4729564366
 C      8.3923713104     -2.8582270471     -7.9649268301
 H      9.4745024078     -2.9081128222     -7.6628311975
 H      7.8280942567     -3.5084731943     -7.3284923839
 H      8.3302703072     -3.2092358149     -8.9976114050
23
# ORCA AIMD Position Step 13, t=6.50 fs, E_Pot=-271.18751621 Hartree, Unit is Angstrom
 C      2.1058200959      1.4666655685     -8.9276336236
 C      3.5771087224      1.4849960068     -8.4795246105
 C      4.2211586379      0.0126842404     -8.6033791616
 C      5.7251165467     -0.0346592645     -8.1896573762
 H      1.4436614746      0.8834497340     -8.2838531774
 H      1.6815028153      2.4325788610     -8.9494856856
 H      2.0248840182      1.0531353865     -9.9092536791
 H      4.1815413259      2.0697693373     -9.1636963512
 H      3.6207693605      1.9104906714     -7.4550185171
 H      3.7154527508     -0.7378888669     -8.0336102385
 H      4.1484846592     -0.3200323010     -9.6151398843
 H      5.8340735983      0.3194024811     -7.1644669219
 H      6.3395185064      0.5868438848     -8.8201332064
 C      6.2681458896     -1.4352997564     -8.2849242005
 H      6.1576434852     -1.8547019235     -9.3112563395
 H      5.7678797750     -2.1305470455     -7.6115490103
 C      7.7893280537     -1.4361979509     -7.8958253010
 H      7.8583876136     -0.9932096495     -6.8697493741
 H      8.3064267094     -0.6814989023     -8.4756798413
 C      8.3924090160     -2.8577159177     -7.9656089832
 H      9.4766764112     -2.9108224944     -7.6593291421
 H      7.8252380960     -3.5084164492     -7.3343849260
 H      8.3299100845     -3.2083136936     -8.9996404380
23
# ORCA AIMD Position Step 14, t=7.00 fs, E_Pot=-271.18840752 Hartree, Unit is Angstrom
 C      2.1059785422      1.4682741848     -8.9273891733
 C      3.5776731414      1.4860910374     -8.4745467699
 C      4.2237723768      0.0139081033     -8.6019988608
 C      5.7269880069     -0.0357208150     -8.1872202691
 H      1.4483438202      0.8852718358     -8.2820966698
 H      1.6852884938      2.4339944466     -8.9569896479
 H      2.0315042790      1.0515845110     -9.9072089105
 H      4.1800605613      2.0773107466     -9.1547613483
 H      3.6237306051      1.9141046508     -7.4515830388
 H      3.7183980745     -0.7371212426     -8.0368227686
 H      4.1535929192     -0.3082112727     -9.6159859767
 H      5.8373254091      0.3151008619     -7.1613552973
 H      6.3434978438      0.5859617111     -8.8148254864
 C      6.2690705798     -1.4383764934     -8.2845373257
 H      6.1544958892     -1.8530868965     -9.3123339799
 H      5.7651648374     -2.1306431011     -7.6103454915
 C      7.7887825860     -1.4340618061     -7.8951064159
 H      7.8537114357     -1.0020750101     -6.8643471433
 H      8.3066065281     -0.6858419864     -8.4803778740
 C      8.3928499718     -2.8570347555     -7.9664200115
 H      9.4747073916     -2.9127913100     -7.6566824651
 H      7.8215616190     -3.5098476879     -7.3392906923
 H      8.3295407741     -3.2077000138     -9.0007694412
23
# ORCA AIMD Position Step 15, t=7.50 fs, E_Pot=-271.19068734 Hartree, Unit is Angstrom
 C      2.1061492369      1.4696691648     -8.9270480791
 C      3.5783233670      1.4867283855     -8.4694761647
 C      4.2265246498      0.0156233364     -8.6004217558
 C      5.7285704278     -0.0366575163     -8.1847201583
 H      1.4543159502      0.8868319559     -8.2800730063
 H      1.6881855028      2.4393779994     -8.9647037560
 H      2.0379537372      1.0492580223     -9.9072037979
 H      4.1781740371      2.0864078055     -9.1456146805
 H      3.6276972273      1.9162671676     -7.4501399762
 H      3.7193332419     -0.7370182722     -8.0380174095
 H      4.1583359163     -0.2963635909     -9.6195558767
 H      5.8404756854      0.3109605775     -7.1585077652
 H      6.3473509003      0.5864885648     -8.8102780856
 C      6.2703467722     -1.4418349446     -8.2842895544
 H      6.1514994138     -1.8501085162     -9.3110803036
 H      5.7619244260     -2.1301962829     -7.6092621300
 C      7.7880793099     -1.4317875986     -7.8940341067
 H      7.8489307028     -1.0133930710     -6.8611291556
 H      8.3076613109     -0.6910587218     -8.4868921489
 C      8.3936675686     -2.8561916476     -7.9673579534
 H      9.4687058866     -2.9140082616     -7.6549016469
 H      7.8171460349     -3.5126657177     -7.3432391505
 H      8.3292335397     -3.2073325653     -9.0009837420
23
# ORCA AIMD Position Step 16, t=8.00 fs, E_Pot=-271.19370872 Hartree, Unit is Angstrom
 C      2.1063632726      1.4708780307     -8.9266255751
 C      3.5790631250      1.4869284621     -8.4643409012
 C      4.2294087008      0.0178360305     -8.5986657948
 C      5.7298804669     -0.0374769720     -8.1821627938
 H      1.4612655902      0.8880861929     -8.2776949182
 H      1.6902690158      2.4483473082     -8.9725515928
 H      2.0442036849      1.0461803669     -9.9090710001
 H      4.1758963678      2.0968743993     -9.1362869785
 H      3.6325458433      1.9169785421     -7.4503891433
 H      3.7182783738     -0.7375812821     -8.0373133217
 H      4.1627112367     -0.2845379609     -9.6255962134
 H      5.8434955187      0.3070061623     -7.1558625103
 H      6.3510076160      0.5883497996     -8.8064423519
 C      6.2719468089     -1.4456261691     -8.2841622672
 H      6.1487133525     -1.8459595828     -9.3077093004
 H      5.7582633466     -2.1292672955     -7.6083333565
 C      7.7872266873     -1.4294467359     -7.8926381896
 H      7.8441721227     -1.0267609289     -6.8599864366
 H      8.3095414442     -0.6969634478     -8.4949676601
 C      8.3947894104     -2.8552055367     -7.9684095419
 H      9.4591805922     -2.9144835749     -7.6538866387
 H      7.8122138517     -3.5166032034     -7.3464088491
 H      8.3290572223     -3.2071642861     -9.0003540391
23
# ORCA AIMD Position Step 17, t=8.50 fs, E_Pot=-271.19648274 Hartree, Unit is Angstrom
 C      2.1066398069      1.4719577953     -8.9261577644
 C      3.5798992182      1.4867164706     -8.4591888062
 C      4.2324008675      0.0205233245     -8.5967629076
 C      5.7309449707     -0.0381834412     -8.1795619459
 H      1.4688335352      0.8889777619     -8.2748583371
 H      1.6917856229      2.4600712358     -8.9804271068
 H      2.0502336646      1.0424757962     -9.9124209730
 H      4.1732095499      2.1084524906     -9.1267694647
 H      3.6381420239      1.9163160480     -7.4518371782
 H      3.7154192362     -0.7385963570     -8.0350162256
 H      4.1667355885     -0.2727160774     -9.6335287554
 H      5.8463593302      0.3032670777     -7.1533345155
 H      6.3543305312      0.5913818116     -8.8031902146
 C      6.2738400915     -1.4496857086     -8.2841178865
 H      6.1461775890     -1.8409336623     -9.3026725834
 H      5.7542927163     -2.1279356348     -7.6075840791
 C      7.7862399283     -1.4271169636     -7.8909787142
 H      7.8395771334     -1.0416491360     -6.8605532306
 H      8.3121274135     -0.7034284827     -8.5042557803
 C      8.3961022546     -2.8541032444     -7.9695538620
 H      9.4470163712     -2.9142499129     -7.6534278845
 H      7.8070965013     -3.5212655018     -7.3490888213
 H      8.3290772032     -3.2071637109     -8.9990307598
23
# ORCA AIMD Position Step 18, t=9.00 fs, E_Pot=-271.19808728 Hartree, Unit is Angstrom
 C      2.1069890849      1.4729834693     -8.9256952409
 C      3.5808403289      1.4861221576     -8.4540830815
 C      4.2354634232      0.0236391821     -8.5947549436
 C      5.7317987221     -0.0387785159     -8.1769369890
 H      1.4766434419      0.8894548404     -8.2714649662
 H      1.6930930415      2.4734099106     -8.9881951128
 H      2.0560260532      1.0383476647     -9.9166970627
 H      4.1700747373      2.1208262233     -9.1170255226
 H      3.6443434277      1.9144214776     -7.4538370136
 H      3.7110807697     -0.7396749337     -8.0315782681
 H      4.1704401981     -0.2608403438     -9.6425365959
 H      5.8490444190      0.2997743630     -7.1508258426
 H      6.3571346031      0.5953514314     -8.8003341691
 C      6.2759937336     -1.4539364028     -8.2841027768
 H      6.1439115553     -1.8354049876     -9.2966253460
 H      5.7501265818     -2.1262976223     -7.6070291336
 C      7.7851405288     -1.4248795259     -7.8891425225
 H      7.8352951416     -1.0574321249     -6.8622338119
 H      8.3152379223     -0.7103782987     -8.5143274006
 C      8.3974606955     -2.8529154400     -7.9707672686
 H      9.4334239079     -2.9133617693     -7.6532151895
 H      7.8021861838     -3.5261864480     -7.3516254036
 H      8.3293548316     -3.2073133151     -8.9972308059
23
# ORCA AIMD Position Step 19, t=9.50 fs, E_Pot=-271.19805916 Hartree, Unit is Angstrom
 C      2.1074161569      1.4740343316     -8.9252942479
 C      3.5818954732      1.4851796920     -8.4490958138
 C      4.2385491204      0.0271227530     -8.5926886635
 C      5.7324814659     -0.0392622872     -8.1743097530
 H      1.4843347338      0.8894913732     -8.2674481622
 H      1.6945889092      2.4870887683     -8.9956985952
 H      2.0615615199      1.0340478536     -9.9212502253
 H      4.1664482628      2.1336420489     -9.1070064249
 H      3.6510022142      1.9114803292     -7.4556471623
 H      3.7056832115     -0.7403201840     -8.0275397929
 H      4.1738654619     -0.2488447170     -9.6516791310
 H      5.8515300827      0.2965567407     -7.1482378954
 H      6.3592140282      0.5999825021     -8.7976538895
 C      6.2783729870     -1.4582921890     -8.2840521934
 H      6.1419161082     -1.8297992355     -9.2903678825
 H      5.7458786214     -2.1244637165     -7.6066732379
 C      7.7839551001     -1.4228162864     -7.8872364448
 H      7.8314761285     -1.0734288161     -6.8642577852
 H      8.3186463707     -0.7177732617     -8.5246965144
 C      8.3987001090     -2.8516726123     -7.9720279728
 H      9.4198448392     -2.9118917081     -7.6528603758
 H      7.7978818741     -3.5308895791     -7.3543660841
 H      8.3299473941     -3.2076059420     -8.9952180188
23
# ORCA AIMD Position Step 20, t=10.00 fs, E_Pot=-271.19659093 Hartree, Unit is Angstrom
 C      2.1079240197      1.4751812849     -8.9250071296
 C      3.5830724536      1.4839278299     -8.4442997066
 C      4.2416064717      0.0309073243     -8.5906108464
 C      5.7330346322     -0.0396347123     -8.1717011517
 H      1.4915939015      0.8891072017     -8.2627978057
 H      1.6966468812      2.4998641883     -9.0027708552
 H      2.0668162645      1.0298427254     -9.9254190648
 H      4.1622990281      2.1465326979     -9.0966682189
 H      3.6579660419      1.9076928810     -7.4565095649
 H      3.6996905536     -0.7400030483     -8.0234657587
 H      4.1770558040     -0.2366815433     -9.6600106209
 H      5.8537965094      0.2936366985     -7.1454840890
 H      6.3603714516      0.6049853924     -8.7949249461
 C      6.2809413239     -1.4626627966     -8.2838975398
 H      6.1401795448     -1.8245552846     -9.2847597767
 H      5.7416590687     -2.1225552220     -7.6065113457
 C      7.7827136894     -1.4210065881     -7.8853768270
 H      7.8282627915     -1.0889525067     -6.8657695210
 H      8.3221034427     -0.7255869246     -8.5348523577
 C      8.3996542151     -2.8504019321     -7.9733188534
 H      9.4077990758     -2.9099223071     -7.6519395835
 H      7.7945384111     -3.5349448842     -7.3576097187
 H      8.3309085294     -3.2080396295     -8.9932791460
23
# ORCA AIMD Position Step 21, t=10.50 fs, E_Pot=-271.19443645 Hartree, Unit is Angstrom
 C      2.1085157334      1.4764773730     -8.9248737819
 C      3.5843766004      1.4824103788     -8.4397588532
 C      4.2445848814      0.0349282540     -8.5885642119
 C      5.7334981540     -0.0398969363     -8.1691280861
 H      1.4981789759      0.8883831999     -8.2575790931
 H      1.6995698281      2.5106547228     -9.0092494286
 H      2.0717612059      1.0259811701     -9.9286030065
 H      4.1576244951      2.1591422836     -9.0859869780