5
# ORCA AIMD Position Step 0, t=0.00 fs, E_Pot=-39.72686364 Hartree, Unit is Angstrom
 H      0.5268700020      0.1604388291      0.9324602932
 C     -0.0000184568     -0.0000186040     -0.0000375875
 H      0.2043844409      0.8210075162     -0.6760896568
 H      0.3332915382     -0.9280181592     -0.4479579802
 H     -1.0646275244     -0.0535095821      0.1914249314
5
# ORCA AIMD Position Step 1, t=0.50 fs, E_Pot=-39.72659811 Hartree, Unit is Angstrom
 H      0.5304987798      0.1600093013      0.9338703366
 C     -0.0042267972      0.0044061388      0.0022084298
 H      0.2092524164      0.8206556954     -0.6778133488
 H      0.3403957997     -0.9379180468     -0.4433316354
 H     -1.0760201986     -0.0472530886      0.1848662177
5
# ORCA AIMD Position Step 2, t=1.00 fs, E_Pot=-39.72590579 Hartree, Unit is Angstrom
 H      0.5337884658      0.1596963696      0.9351929675
 C     -0.0084292500      0.0087386324      0.0044284437
 H      0.2141204245      0.8202856447     -0.6795107925
 H      0.3468761165     -0.9465310965     -0.4381476011
 H     -1.0868438988     -0.0409420602      0.1782936816
5
# ORCA AIMD Position Step 3, t=1.50 fs, E_Pot=-39.72503448 Hartree, Unit is Angstrom
 H      0.5363883259      0.1596198034      0.9363422613
 C     -0.0125910872      0.0128742819      0.0065871753
 H      0.2189462501      0.8198702047     -0.6811319309
 H      0.3521287764     -0.9527150586     -0.4319994068
 H     -1.0965108597     -0.0345701981      0.1717544694
5
# ORCA AIMD Position Step 4, t=2.00 fs, E_Pot=-39.72426476 Hartree, Unit is Angstrom
 H      0.5379785689      0.1598989296      0.9372591006
 C     -0.0166794533      0.0167356448      0.0086572890
 H      0.2236804035      0.8193709656     -0.6826147520
 H      0.3556628836     -0.9556325024     -0.4246293888
 H     -1.1045500361     -0.0281355581      0.1653124842
5
# ORCA AIMD Position Step 5, t=2.50 fs, E_Pot=-39.72381195 Hartree, Unit is Angstrom
 H      0.5382848600      0.1606520705      0.9379243789
 C     -0.0206635873      0.0202761992      0.0106194173
 H      0.2282673548      0.8187417435     -0.6838879367
 H      0.3571262040     -0.9547979171     -0.4159393198
 H     -1.1106462348     -0.0216410640      0.1590482581
5
# ORCA AIMD Position Step 6, t=3.00 fs, E_Pot=-39.72376202 Hartree, Unit is Angstrom
 H      0.5370900421      0.1619955712      0.9383685678
 C     -0.0245152459      0.0234816195      0.0124619474
 H      0.2326480686      0.8179349675     -0.6848764241
 H      0.3563207973     -0.9500993002     -0.4059897603
 H     -1.1146642456     -0.0150942848      0.1530564676
5
# ORCA AIMD Position Step 7, t=3.50 fs, E_Pot=-39.72405034 Hartree, Unit is Angstrom
 H      0.5342424731      0.1640420429      0.9386764437
 C     -0.0282095967      0.0263696610      0.0141810595
 H      0.2367636625      0.8169100644     -0.6855092704
 H      0.3532126350     -0.9418058495     -0.3949937888
 H     -1.1166585236     -0.0085063517      0.1474416477
5
# ORCA AIMD Position Step 8, t=4.00 fs, E_Pot=-39.72448592 Hartree, Unit is Angstrom
 H      0.5296605781      0.1668975437      0.9389862039
 C     -0.0317266343      0.0289890918      0.0157811150
 H      0.2405598791      0.8156426943     -0.6857288765
 H      0.3479363769     -0.9305650284     -0.3833065559
 H     -1.1168687689     -0.0018900040      0.1423125148
5
# ORCA AIMD Position Step 9, t=4.50 fs, E_Pot=-39.72482031 Hartree, Unit is Angstrom
 H      0.5233333044      0.1706575636      0.9394826087
 C     -0.0350529077      0.0314173288      0.0172751179
 H      0.2439919435      0.8141336279     -0.6855005029
 H      0.3407926249     -0.9173828897     -0.3714081106
 H     -1.1157009948      0.0047430867      0.1377751797
5
# ORCA AIMD Position Step 10, t=5.00 fs, E_Pot=-39.72485128 Hartree, Unit is Angstrom
 H      0.5153162771      0.1754018847      0.9403842418
 C     -0.0381830630      0.0337556922      0.0186846650
 H      0.2470292874      0.8124161236     -0.6848209171
 H      0.3322312452     -0.9035729235     -0.3598738389
 H     -1.1136932451      0.0113853636      0.1339255115
5
# ORCA AIMD Position Step 11, t=5.50 fs, E_Pot=-39.72453096 Hartree, Unit is Angstrom
 H      0.5057237015      0.1811886518      0.9419255414
 C     -0.0411204685      0.0361207447      0.0200386286
 H      0.2496595519      0.8105607696     -0.6837249959
 H      0.3228123659     -0.8906538792     -0.3493256811
 H     -1.1114657791      0.0180362574      0.1308410127
5
# ORCA AIMD Position Step 12, t=6.00 fs, E_Pot=-39.72402239 Hartree, Unit is Angstrom
 H      0.4947165164      0.1880482445      0.9443349029
 C     -0.0438762180      0.0386305094      0.0213699507
 H      0.2518912472      0.8086768537     -0.6822890943
 H      0.3131390673     -0.8801815354     -0.3403599406
 H     -1.1096576613      0.0247042158      0.1285727411
5
# ORCA AIMD Position Step 13, t=6.50 fs, E_Pot=-39.72364496 Hartree, Unit is Angstrom
 H      0.4824878881      0.1959776959      0.9478107152
 C     -0.0464663439      0.0413859951      0.0227105525
 H      0.2537544634      0.8069093387     -0.6806300116
 H      0.3037651880     -0.8735194631     -0.3334558313
 H     -1.1088549846      0.0314072619      0.1271379769
5
# ORCA AIMD Position Step 14, t=7.00 fs, E_Pot=-39.72370326 Hartree, Unit is Angstrom
 H      0.4692476338      0.2049363839      0.9524975065
 C     -0.0489081138      0.0444513828      0.0240854422
 H      0.2552991136      0.8054305210     -0.6788984946
 H      0.2950970021     -0.8715888859     -0.3288820597
 H     -1.1095194560      0.0381717172      0.1265144324
5
# ORCA AIMD Position Step 15, t=7.50 fs, E_Pot=-39.72429229 Hartree, Unit is Angstrom
 H      0.4552073674      0.2148435617      0.9584644549
 C     -0.0512172171      0.0478389949      0.0255080730
 H      0.2565903866      0.8044256706     -0.6772665738
 H      0.2873202208     -0.8746708484     -0.3266298280
 H     -1.1119284426      0.0450291685      0.1266368199
5
# ORCA AIMD Position Step 16, t=8.00 fs, E_Pot=-39.72522124 Hartree, Unit is Angstrom
 H      0.4405679958      0.2255781372      0.9656885672
 C     -0.0534074954      0.0515052613      0.0269789584
 H      0.2577014265      0.8040727750     -0.6759088395
 H      0.2803810575     -0.8823353956     -0.3263989045
 H     -1.1161375790      0.0520122531      0.1273965370
5
# ORCA AIMD Position Step 17, t=8.50 fs, E_Pot=-39.72611801 Hartree, Unit is Angstrom
 H      0.4255108302      0.2369810048      0.9740449742
 C     -0.0554933491      0.0553600299      0.0284881230
 H      0.2587038136      0.8045180901     -0.6749791494
 H      0.2740282041     -0.8935276869     -0.3276446922
 H     -1.1219739711      0.0591501637      0.1286450329
5
# ORCA AIMD Position Step 18, t=9.00 fs, E_Pot=-39.72663202 Hartree, Unit is Angstrom
 H      0.4101931358      0.2488600868      0.9833067271
 C     -0.0574931943      0.0592859103      0.0300200644
 H      0.2596571215      0.8058511116     -0.6745859746
 H      0.2678955084     -0.9067752891     -0.3296692882
 H     -1.1290621573      0.0664647851      0.1302009687
5
# ORCA AIMD Position Step 19, t=9.50 fs, E_Pot=-39.72659473 Hartree, Unit is Angstrom
 H      0.3947484218      0.2609979392      0.9931557062
 C     -0.0594318463      0.0631608378      0.0315589464
 H      0.2605994627      0.8080838828     -0.6747709734
 H      0.2615925269     -0.9204405280     -0.3317256659
 H     -1.1368778842      0.0739680859      0.1318605947
5
# ORCA AIMD Position Step 20, t=10.00 fs, E_Pot=-39.72606170 Hartree, Unit is Angstrom
 H      0.3792910629      0.2731613834      1.0032045743
 C     -0.0613406748      0.0668775507      0.0330922635
 H      0.2615411464      0.8111394077     -0.6754955980
 H      0.2547771859     -0.9329475597     -0.3331080359
 H     -1.1448190325      0.0816609893      0.1334100855
5
# ORCA AIMD Position Step 21, t=10.50 fs, E_Pot=-39.72525294 Hartree, Unit is Angstrom
 H      0.3639240491      0.2851123297      1.0130276333
 C     -0.0632557644      0.0703566978      0.0346124618
 H      0.2624631142      0.8148521901     -0.6766392121
 H      0.2472008342     -0.9429479648     -0.3332154855
 H     -1.1522808749      0.0895336336      0.1346382424
5
# ORCA AIMD Position Step 22, t=11.00 fs, E_Pot=-39.72444900 Hartree, Unit is Angstrom
 H      0.3487480815      0.2966189117      1.0221968228
 C     -0.0652151052      0.0735533572      0.0361170163
 H      0.2633207847      0.8189812400     -0.6780096915
 H      0.2387287950     -0.9494223175     -0.3315890667
 H     -1.1587246230      0.0975667848      0.1353481106
5
# ORCA AIMD Position Step 23, t=11.50 fs, E_Pot=-39.72389105 Hartree, Unit is Angstrom
 H      0.3338701294      0.3074662320      1.0303185620
 C     -0.0672558480      0.0764585188      0.0376078193
 H      0.2640527307      0.8232333018     -0.6793647743
 H      0.2293447533     -0.9517335056     -0.3279292720
 H     -1.1637323433      0.1057341286      0.1353665605
5
# ORCA AIMD Position Step 24, t=12.00 fs, E_Pot=-39.72370923 Hartree, Unit is Angstrom
 H      0.3194099264      0.3174662960      1.0370676629
 C     -0.0694122479      0.0790975202      0.0390905818
 H      0.2645926964      0.8272924318     -0.6804404938
 H      0.2191468278     -0.9496510157     -0.3221017902
 H     -1.1670455705      0.1140051870      0.1345514429
5
# ORCA AIMD Position Step 25, t=12.50 fs, E_Pot=-39.72388833 Hartree, Unit is Angstrom
 H      0.3055034756      0.3264669436      1.0422156659
 C     -0.0717144817      0.0815270130      0.0405745799
 H      0.2648830986      0.8308516766     -0.6809823642
 H      0.2083401707     -0.9433599856     -0.3141370494
 H     -1.1685877555      0.1223486016      0.1327963381
5
# ORCA AIMD Position Step 26, t=13.00 fs, E_Pot=-39.72427566 Hartree, Unit is Angstrom
 H      0.2923032204      0.3343596775      1.0456520442
 C     -0.0741882369      0.0838312201      0.0420727094
 H      0.2648882920      0.8336432255     -0.6807754284
 H      0.1972275012     -0.9334595261     -0.3042253491
 H     -1.1684716411      0.1307354887      0.1300330860
5
# ORCA AIMD Position Step 27, t=13.50 fs, E_Pot=-39.72463488 Hartree, Unit is Angstrom
 H      0.2799749648      0.3410861890      1.0473973982
 C     -0.0768548267      0.0861172981      0.0436015178
 H      0.2646062873      0.8354644630     -0.6796702914
 H      0.1861959503     -0.9209443000     -0.2927054947
 H     -1.1669922043      0.1391424842      0.1262322499
5
# ORCA AIMD Position Step 28, t=14.00 fs, E_Pot=-39.72474206 Hartree, Unit is Angstrom
 H      0.2686918864      0.3466431314      1.0476079006
 C     -0.0797315260      0.0885087292      0.0451806905
 H      0.2640780175      0.8361982899     -0.6776032585
 H      0.1756963437     -0.9071535069     -0.2800416335
 H     -1.1646048476      0.1475539773      0.1214015734
5
# ORCA AIMD Position Step 29, t=14.50 fs, E_Pot=-39.72449866 Hartree, Unit is Angstrom
 H      0.2586261198      0.3510843596      1.0465700225
 C     -0.0828317931      0.0911351431      0.0468314235
 H      0.2633934866      0.8358266085     -0.6746093398
 H      0.1662101320     -0.8936655564     -0.2667817878
 H     -1.1618879864      0.1559629367      0.1155824872
5
# ORCA AIMD Position Step 30, t=15.00 fs, E_Pot=-39.72400681 Hartree, Unit is Angstrom
 H      0.2499383851      0.3545195931      1.0446842468
 C     -0.0861650859      0.0941173061      0.0485733600
 H      0.2626941512      0.8344359040     -0.6708270693
 H      0.1582007044     -0.8821209916     -0.2534944041
 H     -1.1594898082      0.1643697692      0.1088449295
5
# ORCA AIMD Position Step 31, t=15.50 fs, E_Pot=-39.72354194 Hartree, Unit is Angstrom
 H      0.2427660219      0.3571084058      1.0424363896
 C     -0.0897361791      0.0975477911      0.0504204238
 H      0.2621707087      0.8322135439     -0.6664939279
 H      0.1520510258     -0.8739777537     -0.2406877500
 H     -1.1580611055      0.1727789191      0.1012811498
5
# ORCA AIMD Position Step 32, t=16.00 fs, E_Pot=-39.72340590 Hartree, Unit is Angstrom
 H      0.2372096166      0.3590487976      1.0403557054
 C     -0.0935442725      0.1014710289      0.0523768174
 H      0.2620552049      0.8294330461     -0.6619308808
 H      0.1479980656     -0.8702414540     -0.2287294397
 H     -1.1581795126      0.1811934774      0.0929995974
5
# ORCA AIMD Position Step 33, t=16.50 fs, E_Pot=-39.72374100 Hartree, Unit is Angstrom
 H      0.2333184282      0.3605604864      1.0389606806
 C     -0.0975825308      0.1058694351      0.0544350473
 H      0.2626062666      0.8264267011     -0.6575145740
 H      0.1460822996     -0.8712503993     -0.2177921167
 H     -1.1602744073      0.1896088218      0.0841201349
5
# ORCA AIMD Position Step 34, t=17.00 fs, E_Pot=-39.72444140 Hartree, Unit is Angstrom
 H      0.2310753587      0.3618645033      1.0386967289
 C     -0.1018385870      0.1106622804      0.0565773052
 H      0.2640866938      0.8235453274     -0.6536367631
 H      0.1461307248     -0.8765975818     -0.2078464637
 H     -1.1645648160      0.1980069483      0.0747714323
5
# ORCA AIMD Position Step 35, t=17.50 fs, E_Pot=-39.72522630 Hartree, Unit is Angstrom
 H      0.2303833444      0.3631622862      1.0398744441
 C     -0.1062958466      0.1157195003      0.0587798396
 H      0.2667340341      0.8211081091     -0.6506532202
 H      0.1477808625     -0.8852228223     -0.1987031217
 H     -1.1710230714      0.2063532815      0.0650905076
5
# ORCA AIMD Position Step 36, t=18.00 fs, E_Pot=-39.72580432 Hartree, Unit is Angstrom
 H      0.2310562724      0.3646184581      1.0426206769
 C     -0.1109346873      0.1208861520      0.0610182957
 H      0.2707271176      0.8193498614     -0.6488285540
 H      0.1505370148     -0.8956357023     -0.1900837656
 H     -1.1793732671      0.2145971263      0.0552233975
5
# ORCA AIMD Position Step 37, t=18.50 fs, E_Pot=-39.72600494 Hartree, Unit is Angstrom
 H      0.2328179155      0.3663510031      1.0468547150
 C     -0.1157326198      0.1260092913      0.0632717236
 H      0.2761541260      0.8183767176     -0.6482874741
 H      0.1538396536     -0.9061855085     -0.1816938668
 H     -1.1891259851      0.2226757629      0.0453253913
5
# ORCA AIMD Position Step 38, t=19.00 fs, E_Pot=-39.72581649 Hartree, Unit is Angstrom
 H      0.2353112549      0.3684305470      1.0522968118
 C     -0.1206632571      0.1309598013      0.0655241194
 H      0.2829891912      0.8181416100     -0.6489844222
 H      0.1571297204     -0.9153014176     -0.1732776995
 H     -1.1996420650      0.2305210911      0.0355594369
5
# ORCA AIMD Position Step 39, t=19.50 fs, E_Pot=-39.72535131 Hartree, Unit is Angstrom
 H      0.2381181834      0.3708877998      1.0585078838
 C     -0.1256948291      0.1356454912      0.0677638816
 H      0.2910835863      0.8184467297     -0.6507003118
 H      0.1598978820     -0.9216643081     -0.1646498731
 H     -1.2102121248      0.2380672216      0.0260920946
5
# ORCA AIMD Position Step 40, t=20.00 fs, E_Pot=-39.72478470 Hartree, Unit is Angstrom
 H      0.2407870270      0.3737262296      1.0649513220
 C     -0.1307892995      0.1400156439      0.0699823722
 H      0.3001742453      0.8189727814     -0.6530680730
 H      0.1617173567     -0.9243084575     -0.1557074278
 H     -1.2201374239      0.2452576040      0.0170872975
5
# ORCA AIMD Position Step 41, t=20.50 fs, E_Pot=-39.72429544 Hartree, Unit is Angstrom
 H      0.2428637691      0.3769364488      1.0710639717
 C     -0.1359028063      0.1440594385      0.0721726838
 H      0.3099080120      0.8193276869     -0.6556209797
 H      0.1622638728     -0.9226707814     -0.1464297588
 H     -1.2288008969      0.2520508663      0.0086987625
5
# ORCA AIMD Position Step 42, t=21.00 fs, E_Pot=-39.72401543 Hartree, Unit is Angstrom
 H      0.2439227843      0.3805094563      1.0763242437
 C     -0.1409875441      0.1478011619      0.0743291433
 H      0.3198766234      0.8191036265     -0.6578529155
 H      0.1613274783     -0.9166083228     -0.1368725533
 H     -1.2357223160      0.2584251462      0.0010620362
5
# ORCA AIMD Position Step 43, t=21.50 fs, E_Pot=-39.72399132 Hartree, Unit is Angstrom
 H      0.2435939466      0.3844470878      1.0803092865
 C     -0.1459947307      0.1512944555      0.0764475207
 H      0.3296562026      0.8179318733     -0.6592793480
 H      0.1588196880     -0.9063986204     -0.1271592983
 H     -1.2405960594      0.2643810688     -0.0057130253
5
# ORCA AIMD Position Step 44, t=22.00 fs, E_Pot=-39.72416726 Hartree, Unit is Angstrom
 H      0.2415843924      0.3887691345      1.0827376428
 C     -0.1508780900      0.1546166698      0.0785256092
 H      0.3388458997      0.8155283502     -0.6594908129
 H      0.1547770483     -0.8927280634     -0.1174713332
 H     -1.2433125656      0.2699436229     -0.0115488234
5
# ORCA AIMD Position Step 45, t=22.50 fs, E_Pot=-39.72440212 Hartree, Unit is Angstrom
 H      0.2376943122      0.3935172560      1.0834970077
 C     -0.1555972519      0.1578631813      0.0805637648
 H      0.3471022336      0.8117268793     -0.6581948119
 H      0.1493593219     -0.8766632902     -0.1080354062
 H     -1.2439651339      0.2751630636     -0.0164052936
5
# ORCA AIMD Position Step 46, t=23.00 fs, E_Pot=-39.72452760 Hartree, Unit is Angstrom
 H      0.2318266058      0.3987560279      1.0826579887
 C     -0.1601205007      0.1611405559      0.0825650558
 H      0.3541674915      0.8064999798     -0.6552452429
 H      0.1428377321     -0.8595919691     -0.0991064183
 H     -1.2428429097      0.2801147175     -0.0202835676
5
# ORCA AIMD Position Step 47, t=23.50 fs, E_Pot=-39.72443297 Hartree, Unit is Angstrom
 H      0.2239901346      0.4045713574      1.0804744662
 C     -0.1644263413      0.1645569798      0.0845347799
 H      0.3598915241      0.7999682442     -0.6506599482
 H      0.1355671472     -0.8431147631     -0.0909428135
 H     -1.2404095790      0.2848973000     -0.0232275809
5
# ORCA AIMD Position Step 48, t=24.00 fs, E_Pot=-39.72413528 Hartree, Unit is Angstrom
 H      0.2142959598      0.4110662217      1.0773700058
 C     -0.1685035025      0.1682088035      0.0864792866
 H      0.3642462752      0.7923990648     -0.6446268253
 H      0.1279376275     -0.8288749458     -0.0837734709
 H     -1.2372663703      0.2896291787     -0.0253230597
5
# ORCA AIMD Position Step 49, t=24.50 fs, E_Pot=-39.72378229 Hartree, Unit is Angstrom
 H      0.2029457409      0.4183533756      1.0739085859
 C     -0.1723494204      0.1721637268      0.0884043267
 H      0.3673316231      0.7841944387     -0.6374977583
 H      0.1203073191     -0.8183312423     -0.0777585131
 H     -1.2340981934      0.2944420411     -0.0266933383
5
# ORCA AIMD Position Step 50, t=25.00 fs, E_Pot=-39.72356863 Hartree, Unit is Angstrom
 H      0.1902117407      0.4265445005      1.0707474834
 C     -0.1759679259      0.1764439467      0.0903135052
 H      0.3693700259      0.7758664217     -0.6297681317
 H      0.1129297395     -0.8125118833     -0.0729515762
 H     -1.2316036962      0.2994717414     -0.0274917380
5
# ORCA AIMD Position Step 51, t=25.50 fs, E_Pot=-39.72361559 Hartree, Unit is Angstrom
 H      0.1764088742      0.4357354676      1.0685713573
 C     -0.1793673862      0.1810151100      0.0922076291
 H      0.3706866558      0.7679983096     -0.6220387209
 H      0.1058982612     -0.8118180771     -0.0692750908
 H     -1.2304138795      0.3048467624     -0.0278907963
5
# ORCA AIMD Position Step 52, t=26.00 fs, E_Pot=-39.72390678 Hartree, Unit is Angstrom
 H      0.1618610580      0.4459882131      1.0680102069
 C     -0.1825602776      0.1857868690      0.0940854818
 H      0.3716721311      0.7611907325     -0.6149574894
 H      0.0991298459     -0.8159469573     -0.0665190326
 H     -1.2310091102      0.3106756323     -0.0280693944
5
# ORCA AIMD Position Step 53, t=26.50 fs, E_Pot=-39.72432318 Hartree, Unit is Angstrom
 H      0.1468664871      0.4573111696      1.0695499779
 C     -0.1855639848      0.1906270601      0.0959457990
 H      0.3727277091      0.7559952784     -0.6091425115
 H      0.0923951175     -0.8239642703     -0.0643659459
 H     -1.2336490170      0.3170354291     -0.0281995532
5
# ORCA AIMD Position Step 54, t=27.00 fs, E_Pot=-39.72472901 Hartree, Unit is Angstrom
 H      0.1316684493      0.4696417835      1.0734512963
 C     -0.1884014657      0.1953858762      0.0977894091
 H      0.3741984145      0.7528436417     -0.6050941357
 H      0.0853815400     -0.8344968636     -0.0624348758
 H     -1.2383308535      0.3239636935     -0.0284350254
5
# ORCA AIMD Position Step 55, t=27.50 fs, E_Pot=-39.72502976 Hartree, Unit is Angstrom
 H      0.1164383699      0.4828355198      1.0796952702
 C     -0.1911004501      0.1999226053      0.0996203446
 H      0.3763065630      0.7519854697     -0.6031124381
 H      0.0777652495     -0.8459753544     -0.0603308824
 H     -1.2447871970      0.3314553740     -0.0289035064
5
# ORCA AIMD Position Step 56, t=28.00 fs, E_Pot=-39.72517797 Hartree, Unit is Angstrom
 H      0.1012749637      0.4966651336      1.0879717985
 C     -0.1936910596      0.2041276581      0.1014453978
 H      0.3791026849      0.7534496489     -0.6032403403
 H      0.0692705813     -0.8568591791     -0.0576880827
 H     -1.2525241772      0.3394651242     -0.0297033446
5
# ORCA AIMD Position Step 57, t=28.50 fs, E_Pot=-39.72515900 Hartree, Unit is Angstrom
 H      0.0862184605      0.5108318115      1.0977152068
 C     -0.1962029896      0.2079357560      0.1032725589
 H      0.3824487914      0.7570394115     -0.6052490425
 H      0.0597079561     -0.8658060692     -0.0541999935
 H     -1.2608910387      0.3479140299     -0.0309044661
5
# ORCA AIMD Position Step 58, t=29.00 fs, E_Pot=-39.72498870 Hartree, Unit is Angstrom
 H      0.0712743335      0.5249868462      1.1081788826
 C     -0.1986636256      0.2113298943      0.1051092998
 H      0.3860395759      0.7623623358     -0.6086705858
 H      0.0489911303     -0.8717797310     -0.0496367513
 H     -1.2691655256      0.3566991749     -0.0325523791
5
# ORCA AIMD Position Step 59, t=29.50 fs, E_Pot=-39.72472065 Hartree, Unit is Angstrom
 H      0.0564391135      0.5387601210      1.1185313413
 C     -0.2010977190      0.2143382739      0.1069614934
 H      0.3894549901      0.7688865404     -0.6128680639
 H      0.0371396389     -0.8741079590     -0.0438519988
 H     -1.2766393151      0.3657044289     -0.0346738633
5
# ORCA AIMD Position Step 60, t=30.00 fs, E_Pot=-39.72444107 Hartree, Unit is Angstrom
 H      0.0417221326      0.5517907973      1.1279544629
 C     -0.2035283072      0.2170272603      0.1088331921
 H      0.3922292521      0.7760089008     -0.6171247327
 H      0.0242724394     -0.8725078004     -0.0367828643
 H     -1.2826920344      0.3748112045     -0.0372831718
5
# ORCA AIMD Position Step 61, t=30.50 fs, E_Pot=-39.72424070 Hartree, Unit is Angstrom
 H      0.0271599963      0.5637562827      1.1357294229
 C     -0.2059780656      0.2194929369      0.1107270021
 H      0.3939202843      0.7831217319     -0.6207326843
 H      0.0105967629     -0.8670902084     -0.0284455905
 H     -1.2868481537      0.3839083748     -0.0403879867
5
# ORCA AIMD Position Step 62, t=31.00 fs, E_Pot=-39.72417561 Hartree, Unit is Angstrom
 H      0.0128234217      0.5743971111      1.1413031943
 C     -0.2084703413      0.2218526162      0.1126446036
 H      0.3941683947      0.7896691711     -0.6230678366
 H     -0.0036061921     -0.8583489463     -0.0189280166
 H     -1.2888157309      0.3929008963     -0.0439947308
5
# ORCA AIMD Position Step 63, t=31.50 fs, E_Pot=-39.72424127 Hartree, Unit is Angstrom
 H     -0.0011822313      0.5835368674      1.1443347056
 C     -0.2110294569      0.2242363837      0.1145870329
 H      0.3927396178      0.7951901084     -0.6236459378
 H     -0.0179989681     -0.8471302509     -0.0083788793
 H     -1.2885084552      0.4017168584     -0.0481130483
5
# ORCA AIMD Position Step 64, t=32.00 fs, E_Pot=-39.72437808 Hartree, Unit is Angstrom
 H     -0.0147209264      0.5910971225      1.1447229666
 C     -0.2136802380      0.2267777846      0.1165545246
 H      0.3895541416      0.7993484704     -0.6221602347
 H     -0.0322101952     -0.8345729071      0.0030067896
 H     -1.2860527913      0.4103126774     -0.0527593010
5
# ORCA AIMD Position Step 65, t=32.50 fs, E_Pot=-39.72450630 Hartree, Unit is Angstrom
 H     -0.0276329042      0.5971073129      1.1426196642
 C     -0.2164469804      0.2296024199      0.1185459196
 H      0.3847024079      0.8019531710     -0.6185040121
 H     -0.0458625971     -0.8220055787      0.0150066552
 H     -1.2817809622      0.4186759992     -0.0579588151
5
# ORCA AIMD Position Step 66, t=33.00 fs, E_Pot=-39.72456715 Hartree, Unit is Angstrom
 H     -0.0397436917      0.6017087610      1.1384267647
 C     -0.2193522639      0.2328137775      0.1205578794
 H      0.3784511405      0.8029694538     -0.6127807973
 H     -0.0586059963     -0.8107934442      0.0273934752
 H     -1.2762089680      0.4268256578     -0.0637463838
5
# ORCA AIMD Position Step 67, t=33.50 fs, E_Pot=-39.72453999 Hartree, Unit is Angstrom
 H     -0.0508748100      0.6051509739      1.1327767338
 C     -0.2224161284      0.2364772521      0.1225843718
 H      0.3712396682      0.8025214367     -0.6053027404
 H     -0.0701517448     -0.8021426723      0.0399574981
 H     -1.2699977562      0.4348079148     -0.0701642746
5
# ORCA AIMD Position Step 68, t=34.00 fs, E_Pot=-39.72442704 Hartree, Unit is Angstrom
 H     -0.0608562125      0.6077775261      1.1264903886
 C     -0.2256560990      0.2406056697      0.1246170060
 H      0.3636643628      0.8008832551     -0.5965746104
 H     -0.0803020724     -0.7968965124      0.0525234160
 H     -1.2638959474      0.4426883847     -0.0772568489
5
# ORCA AIMD Position Step 69, t=34.50 fs, E_Pot=-39.72423318 Hartree, Unit is Angstrom
 H     -0.0695405787      0.6099989620      1.1205067563
 C     -0.2290882098      0.2451515052      0.1266466133
 H      0.3564467147      0.7984542388     -0.5872581157
 H     -0.0889670059     -0.7953778812      0.0649567904
 H     -1.2586649081      0.4505397162     -0.0850611288
5
# ORCA AIMD Position Step 70, t=35.00 fs, E_Pot=-39.72397685 Hartree, Unit is Angstrom
 H     -0.0768192400      0.6122520210      1.1157825710
 C     -0.2327285173      0.2500106036      0.1286658817
 H      0.3503797683      0.7957133817     -0.5781104844
 H     -0.0961643113     -0.7973316705      0.0771586094
 H     -1.2549916688      0.4584262668     -0.0935934666
5
# ORCA AIMD Position Step 71, t=35.50 fs, E_Pot=-39.72372534 Hartree, Unit is Angstrom
 H     -0.0826386352      0.6149483910      1.1131675355
 C     -0.2365939030      0.2550388345      0.1306721064
 H      0.3462500603      0.7931515988     -0.5698945799
 H     -0.1020034785     -0.8019880914      0.0890518936
 H     -1.2534011933      0.4663883342     -0.1028338882
5
# ORCA AIMD Position Step 72, t=36.00 fs, E_Pot=-39.72359982 Hartree, Unit is Angstrom
 H     -0.0870150004      0.6184211928      1.1132738592
 C     -0.2407008211      0.2600781464      0.1326687028
 H      0.3447391948      0.7911877711     -0.5632668516
 H     -0.1066598410     -0.8082227428      0.1005673104
 H     -1.2541841696      0.4744293530     -0.1127112702
5
# ORCA AIMD Position Step 73, t=36.50 fs, E_Pot=-39.72371334 Hartree, Unit is Angstrom
 H     -0.0900440708      0.6228810131      1.1163692258
 C     -0.2450614752      0.2649848189      0.1346645085
 H      0.3463197963      0.7900846227     -0.5586625195
 H     -0.1103465673     -0.8147588246      0.1116336201
 H     -1.2573564982      0.4825092076     -0.1230934284
5
# ORCA AIMD Position Step 74, t=37.00 fs, E_Pot=-39.72407961 Hartree, Unit is Angstrom
 H     -0.0919026623      0.6283927069      1.1223232260
 C     -0.2496783878      0.2696523156      0.1366709830
 H      0.3511699792      0.7898876322     -0.5562078746
 H     -0.1132903339     -0.8203571804      0.1221750370
 H     -1.2626603671      0.4905453628     -0.1337856903
5
# ORCA AIMD Position Step 75, t=37.50 fs, E_Pot=-39.72457546 Hartree, Unit is Angstrom
 H     -0.0928404670      0.6348785614      1.1306242739
 C     -0.2545394854      0.2740238603      0.1386985290
 H      0.3591314725      0.7904077843     -0.5556883509
 H     -0.1157130892     -0.8239618569      0.1321142609
 H     -1.2696062577      0.4984214703     -0.1445395460
5
# ORCA AIMD Position Step 76, t=38.00 fs, E_Pot=-39.72499793 Hartree, Unit is Angstrom
 H     -0.0931627971      0.6421452785      1.1404620980
 C     -0.2596157777      0.2780939487      0.1407535224
 H      0.3697253195      0.7912552303     -0.5565845037
 H     -0.1178195894     -0.8247936583      0.1413786086
 H     -1.2775451652      0.5060013706     -0.1550703481
5
# ORCA AIMD Position Step 77, t=38.50 fs, E_Pot=-39.72517568 Hartree, Unit is Angstrom
 H     -0.0932072462      0.6499258247      1.1508517983
 C     -0.2648624873      0.2819014228      0.1428370218
 H      0.3822202834      0.7919126809     -0.5581641066
 H     -0.1197891685     -0.8223994796      0.1499069747
 H     -1.2857550036      0.5131455965     -0.1650809225
5
# ORCA AIMD Position Step 78, t=39.00 fs, E_Pot=-39.72505584 Hartree, Unit is Angstrom
 H     -0.0933183052      0.6579253301      1.1607685196
 C     -0.2702230030      0.2855181973      0.1449451255
 H      0.3957334217      0.7918254796     -0.5596015170
 H     -0.1217702363     -0.8166694458      0.1576562372
 H     -1.2935257149      0.5197276562     -0.1742871272
5
# ORCA AIMD Position Step 79, t=39.50 fs, E_Pot=-39.72471823 Hartree, Unit is Angstrom
 H     -0.0938235986      0.6658625104      1.1692675072
 C     -0.2756341919      0.2890371880      0.1470702702
 H      0.4093376707      0.7904854266     -0.5600937407
 H     -0.1238766859     -0.8078311275      0.1646064685
 H     -1.3002321570      0.5256481680     -0.1824418653
5
# ORCA AIMD Position Step 80, t=40.00 fs, E_Pot=-39.72432482 Hartree, Unit is Angstrom