11
# ORCA AIMD Position Step 0, t=0.00 fs, E_Pot=-116.88642215 Hartree, Unit is Angstrom
 H      1.9181821665     -0.1223066954      1.0569490812
 C      1.2980423739     -0.0652391529      0.1672596767
 H      1.5855467520      0.8204389804     -0.3916211973
 H      1.5047318040     -0.9359988450     -0.4479558838
 C     -0.1942037267     -0.0088078703      0.5484245046
 H     -0.4502406892     -0.8931049315      1.1294646969
 H     -0.3696702596      0.8559732503      1.1860049953
 C     -1.1147771333      0.0734542169     -0.6848820268
 H     -0.8968172877      0.9631459339     -1.2682994890
 H     -0.9780336584     -0.7932667988     -1.3248254415
 H     -2.1570603408      0.1119119124     -0.3823189183
11
# ORCA AIMD Position Step 1, t=0.50 fs, E_Pot=-116.88596153 Hartree, Unit is Angstrom
 H      1.9236698675     -0.1209553705      1.0610089678
 C      1.2956841287     -0.0590280894      0.1721564788
 H      1.5922750466      0.8218680999     -0.3906985760
 H      1.5136989035     -0.9441285475     -0.4406760730
 C     -0.1982666011     -0.0054255745      0.5472731513
 H     -0.4591232962     -0.8847137319      1.1264789471
 H     -0.3679965966      0.8523963618      1.1831587889
 C     -1.1146541893      0.0735585512     -0.6851190667
 H     -0.9078795370      0.9680541332     -1.2679617531
 H     -0.9770621891     -0.8062737264     -1.3280308866
 H     -2.1546455362      0.1108478940     -0.3893899803
11
# ORCA AIMD Position Step 2, t=1.00 fs, E_Pot=-116.88475953 Hartree, Unit is Angstrom
 H      1.9287155362     -0.1194198410      1.0648731319
 C      1.2934041722     -0.0529531297      0.1770014955
 H      1.5988400611      0.8232887009     -0.3897479066
 H      1.5222394089     -0.9511354659     -0.4328300916
 C     -0.2022791210     -0.0020702037      0.5460962629
 H     -0.4679587776     -0.8767265169      1.1237120740
 H     -0.3665943687      0.8495318433      1.1807238262
 C     -1.1145129952      0.0735978177     -0.6854523366
 H     -0.9187355958      0.9727070045     -1.2676558364
 H     -0.9761704669     -0.8180760125     -1.3305430556
 H     -2.1526954415      0.1097056577     -0.3961699626
11
# ORCA AIMD Position Step 3, t=1.50 fs, E_Pot=-116.88324837 Hartree, Unit is Angstrom
 H      1.9329232601     -0.1175200715      1.0683906936
 C      1.2912701843     -0.0471207356      0.1817612462
 H      1.6050930649      0.8246868245     -0.3887327419
 H      1.5299791993     -0.9560832038     -0.4239648579
 C     -0.2062023007      0.0012407306      0.5448703201
 H     -0.4767162647     -0.8694975170      1.1213574184
 H     -0.3657123802      0.8480264135      1.1790661980
 C     -1.1143416837      0.0735215681     -0.6859649905
 H     -0.9292057679      0.9768739901     -1.2674116605
 H     -0.9754116314     -0.8276818622     -1.3318104899
 H     -2.1516098328      0.1084035410     -0.4024098348
11
# ORCA AIMD Position Step 4, t=2.00 fs, E_Pot=-116.88191493 Hartree, Unit is Angstrom
 H      1.9359576615     -0.1150896999      1.0714745879
 C      1.2893395049     -0.0416141303      0.1864110968
 H      1.6108889259      0.8260411850     -0.3876109083
 H      1.5366047067     -0.9582798530     -0.4137960134
 C     -0.2100022384      0.0044954109      0.5435833663
 H     -0.4853511420     -0.8633035137      1.1195636476
 H     -0.3655615785      0.8483773744      1.1784494941
 C     -1.1141401370      0.0732983672     -0.6867203411
 H     -0.9391169220      0.9803541310     -1.2672632338
 H     -0.9748056487     -0.8343590670     -1.3314639847
 H     -2.1516709065      0.1068611155     -0.4079056354
11
# ORCA AIMD Position Step 5, t=2.50 fs, E_Pot=-116.88111577 Hartree, Unit is Angstrom
 H      1.9375646207     -0.1119813675      1.0741197361
 C      1.2876552757     -0.0364891793      0.1909354778
 H      1.6160905045      0.8273268937     -0.3863370833
 H      1.5418827158     -0.9573213119     -0.4022242903
 C     -0.2136520635      0.0076908286      0.5422403397
 H     -0.4937971886     -0.8583126851      1.1184162092
 H     -0.3663010990      0.8508629249      1.1789848809
 C     -1.1139233749      0.0729177433     -0.6877580389
 H     -0.9483070322      0.9829892443     -1.2672532791
 H     -0.9743352861     -0.8376769509     -1.3293398329
 H     -2.1530001961      0.1050023490     -0.4125128930
11
# ORCA AIMD Position Step 6, t=3.00 fs, E_Pot=-116.88095932 Hartree, Unit is Angstrom
 H      1.9375847928     -0.1080708955      1.0764121738
 C      1.2862436857     -0.0317725689      0.1953276577
 H      1.6205735768      0.8285210331     -0.3848668660
 H      1.5456736586     -0.9531115893     -0.3893370982
 C     -0.2171330129      0.0108343268      0.5408657913
 H     -0.5019618710     -0.8545667887      1.1179269083
 H     -0.3680308630      0.8555042421      1.1806040774
 C     -1.1137225985      0.0723904500     -0.6890922785
 H     -0.9566298055      0.9846736726     -1.2674364289
 H     -0.9739452053     -0.8375251455     -1.3254870470
 H     -2.1555398417      0.1027592763     -0.4161537013
11
# ORCA AIMD Position Step 7, t=3.50 fs, E_Pot=-116.88128929 Hartree, Unit is Angstrom
 H      1.9359593674     -0.1032602591      1.0785288246
 C      1.2851122940     -0.0274615660      0.1995895579
 H      1.6242319180      0.8296092082     -0.3831617570
 H      1.5479398127     -0.9458675241     -0.3754009626
 C     -0.2204345126      0.0139430463      0.5395031372
 H     -0.5097262095     -0.8519797681      1.1180335688
 H     -0.3707915076      0.8620688792      1.1830629130
 C     -1.1135836794      0.0717477227     -0.6907116413
 H     -0.9639591641      0.9853601769     -1.2678804524
 H     -0.9735430004     -0.8341164276     -1.3201637849
 H     -2.1590620306      0.1000758121     -0.4188161597
11
# ORCA AIMD Position Step 8, t=4.00 fs, E_Pot=-116.88176822 Hartree, Unit is Angstrom
 H      1.9327278141     -0.0974794095      1.0807278251
 C      1.2842494854     -0.0235250621      0.2037317438
 H      1.6269821051      0.8305921143     -0.3811943609
 H      1.5487487422     -0.9361099745     -0.3608464357
 C     -0.2235533631      0.0170414324      0.5382104836
 H     -0.5169497491     -0.8503527771      1.1186098689
 H     -0.3745706978      0.8701139946      1.1859748864
 C     -1.1135633499      0.0710396955     -0.6925804393
 H     -0.9701933288      0.9850618564     -1.2686652689
 H     -0.9730018612     -0.8279748904     -1.3138239219
 H     -2.1632042624      0.0969112524     -0.4205472464
11
# ORCA AIMD Position Step 9, t=4.50 fs, E_Pot=-116.88202968 Hartree, Unit is Angstrom
 H      1.9280175187     -0.0906870405      1.0833293848
 C      1.2836252496     -0.0199061242      0.2077733800
 H      1.6287675631      0.8314912043     -0.3789531208
 H      1.5482706729     -0.9246374148     -0.3462432404
 C     -0.2264922994      0.0201575602      0.5370539374
 H     -0.5234800571     -0.8494025488      1.1194835387
 H     -0.3793136744      0.8790576814      1.1888661412
 C     -1.1137237365      0.0703325811     -0.6946417251
 H     -0.9752582375      0.9838501456     -1.2698797755
 H     -0.9721654534     -0.8199043186     -1.3070904517
 H     -2.1675228781      0.0932430022     -0.4214410684
11
# ORCA AIMD Position Step 10, t=5.00 fs, E_Pot=-116.88184822 Hartree, Unit is Angstrom
 H      1.9220255677     -0.0828704309      1.0866875315
 C      1.2831935655     -0.0165267193      0.2117416581
 H      1.6295613898      0.8323526610     -0.3764459502
 H      1.5467669443     -0.9124729190     -0.3322606729
 C     -0.2292582585      0.0233192630      0.5360998111
 H     -0.5291652384     -0.8487979494      1.1204597565
 H     -0.3849356314      0.8882617530      1.1912391781
 C     -1.1141260295      0.0697038118     -0.6968223617
 H     -0.9791100598      0.9818490058     -1.2716167180
 H     -0.9708564178     -0.8109269420     -1.3007094844
 H     -2.1715547730      0.0890681811     -0.4216246536
11
# ORCA AIMD Position Step 11, t=5.50 fs, E_Pot=-116.88126309 Hartree, Unit is Angstrom
 H      1.9149937618     -0.0740445357      1.0911540389
 C      1.2828966305     -0.0132954262      0.2156700673
 H      1.6293675633      0.8332490092     -0.3737022095
 H      1.5445661612     -0.9007741403     -0.3196078864
 C     -0.2318606411      0.0265508578      0.5354071119
 H     -0.5338674932     -0.8481989397      1.1213461123
 H     -0.3913340110      0.8971107447      1.1926334265
 C     -1.1148239964      0.0692343029     -0.6990405536
 H     -0.9817366681      0.9792254701     -1.2739659394
 H     -0.9688903177     -0.8021826255     -1.2954787333
 H     -2.1748776549      0.0844039593     -0.4212431572
11
# ORCA AIMD Position Step 12, t=6.00 fs, E_Pot=-116.88058973 Hartree, Unit is Angstrom
 H      1.9071792148     -0.0642505558      1.0970373814
 C      1.2826708936     -0.0101185150      0.2195950176
 H      1.6282202615      0.8342777877     -0.3707725436
 H      1.5420263248     -0.8907012793     -0.3089521185
 C     -0.2343097556      0.0298708464      0.5350213180
 H     -0.5374758203     -0.8472928989      1.1219758755
 H     -0.3983995914      0.9050772357      1.1926748044
 C     -1.1158578498      0.0689976297     -0.7012158110
 H     -0.9831580866      0.9761767665     -1.2770063636
 H     -0.9660963813     -0.7947863151     -1.2921495529
 H     -2.1771616155      0.0792866749     -0.4204458678
11
# ORCA AIMD Position Step 13, t=6.50 fs, E_Pot=-116.88028179 Hartree, Unit is Angstrom
 H      1.8988242915     -0.0535542444      1.1045613521
 C      1.2824543127     -0.0069135786      0.2235508761
 H      1.6261811998      0.8355567601     -0.3677261808
 H      1.5394857838     -0.8832523399     -0.3008212029
 C     -0.2366155271      0.0332905804      0.5349699308
 H     -0.5399164438     -0.8458247949      1.1222271972
 H     -0.4060259070      0.9117695106      1.1911109841
 C     -1.1172488543      0.0690473118     -0.7032803902
 H     -0.9834261315      0.9729143960     -1.2807970562
 H     -0.9623444294     -0.7896585518     -1.2913125828
 H     -2.1782076741      0.0737699098     -0.4193739785
11
# ORCA AIMD Position Step 14, t=7.00 fs, E_Pot=-116.88068585 Hartree, Unit is Angstrom
 H      1.8901305162     -0.0420441583      1.1138293232
 C      1.2821935995     -0.0036231675      0.2275643499
 H      1.6233350865      0.8372152423     -0.3646454206
 H      1.5372123138     -0.8790954329     -0.2955081051
 C     -0.2387864837      0.0368136566      0.5352598725
 H     -0.5411601579     -0.8436193154      1.1220368785
 H     -0.4141169180      0.9169617676      1.1878323936
 C     -1.1189951246      0.0694051407     -0.7051900796
 H     -0.9826235590      0.9696458593     -1.2853677632
 H     -0.9575739329     -0.7873649114     -1.2932906146
 H     -2.1779711983      0.0679217041     -0.4181508728
11
# ORCA AIMD Position Step 15, t=7.50 fs, E_Pot=-116.88182325 Hartree, Unit is Angstrom
 H      1.8812408535     -0.0298299057      1.1248003074
 C      1.2818498177     -0.0002245696      0.2316499054
 H      1.6197834856      0.8393814699     -0.3616173012
 H      1.5353643463     -0.8784436439     -0.2930036239
 C     -0.2408290207      0.0404357829      0.5358765779
 H     -0.5412262954     -0.8405943035      1.1214081248
 H     -0.4225929493      0.9206088309      1.1828804020
 C     -1.1210692553      0.0700544304     -0.7069315324
 H     -0.9808629838      0.9665553243     -1.2907095822
 H     -0.9518177069     -0.7880120306     -1.2980699768
 H     -2.1765692610      0.0618210539     -0.4168756048
11
# ORCA AIMD Position Step 16, t=8.00 fs, E_Pot=-116.88334692 Hartree, Unit is Angstrom
 H      1.8722332388     -0.0170402309      1.1372816035
 C      1.2814009454      0.0032677872      0.2358078939
 H      1.6156375720      0.8421666761     -0.3587229026
 H      1.5339768253     -0.8810145463     -0.2929808291
 C     -0.2427469612      0.0441449773      0.5367846081
 H     -0.5401832868     -0.8367654335      1.1204121446
 H     -0.4313948158      0.9228469770      1.1764439725
 C     -1.1234185004      0.0709410706     -0.7085239086
 H     -0.9782855726      0.9637853818     -1.2967669021
 H     -0.9452119654     -0.7912368206     -1.3052947652
 H     -2.1742712945      0.0555538606     -0.4156202241
11
# ORCA AIMD Position Step 17, t=8.50 fs, E_Pot=-116.88470969 Hartree, Unit is Angstrom
 H      1.8631258263     -0.0038206213      1.1509400559
 C      1.2808409643      0.0068084353      0.2400260159
 H      1.6110104744      0.8456476529     -0.3560254047
 H      1.5329754169     -0.8860892687     -0.2948388494
 C     -0.2445414776      0.0479221457      0.5379297260
 H     -0.5381458305     -0.8322421306      1.1191835954
 H     -0.4404857825      0.9239809668      1.1688450884
 C     -1.1259679722      0.0719824067     -0.7100143937
 H     -0.9750591518      0.9614228261     -1.3034322663
 H     -0.9379880362     -0.7962924780     -1.3143269145
 H     -2.1714725376      0.0492086726     -0.4144314846
11
# ORCA AIMD Position Step 18, t=9.00 fs, E_Pot=-116.88543319 Hartree, Unit is Angstrom
 H      1.8538919700      0.0096698724      1.1653305512
 C      1.2801761781      0.0103334089      0.2442833106
 H      1.6060101135      0.8498506358     -0.3535587080
 H      1.5322118812     -0.8926494830     -0.2977924791
 C     -0.2462114761      0.0517422309      0.5392424848
 H     -0.5352686926     -0.8272146510      1.1179099553
 H     -0.4498506473      0.9244558315      1.1605123955
 C     -1.1286267690      0.0730809660     -0.7114691565
 H     -0.9713750986      0.9594915456     -1.3105460022
 H     -0.9304473921     -0.8021995327     -1.3243517296
 H     -2.1686505918      0.0428728094     -0.4133371863
11
# ORCA AIMD Position Step 19, t=9.50 fs, E_Pot=-116.88531598 Hartree, Unit is Angstrom
 H      1.8444812327      0.0232627316      1.1799373059
 C      1.2794201434      0.0137751526      0.2485549793
 H      1.6007335542      0.8547398041     -0.3513188309
 H      1.5315073158     -0.8995475716     -0.3009807361
 C     -0.2477545469      0.0555761561      0.5406433704
 H     -0.5317372899     -0.8219324250      1.1168151180
 H     -0.4594909447      0.9248116152      1.1519425920
 C     -1.1312963286      0.0741387774     -0.7129623420
 H     -0.9674433865      0.9579546523     -1.3179019757
 H     -0.9229268958     -0.8079142109     -1.3344972715
 H     -2.1663075140      0.0366296123     -0.4123568200
11
# ORCA AIMD Position Step 20, t=10.00 fs, E_Pot=-116.88448757 Hartree, Unit is Angstrom
 H      1.8348421782      0.0367848681      1.1942216592
 C      1.2785885550      0.0170758547      0.2528165213
 H      1.5952637723      0.8602131815     -0.3492601342
 H      1.5306912814     -0.9056663808     -0.3035682595
 C     -0.2491685323      0.0593936511      0.5420493465
 H     -0.5277555593     -0.8166745238      1.1161380264
 H     -0.4694153549      0.9256210824      1.1436506750
 C     -1.1338798630      0.0750689038     -0.7145654389
 H     -0.9634854910      0.9567260548     -1.3252596842
 H     -0.9157625066     -0.8124746757     -1.3439406337
 H     -2.1649032285      0.0305574182     -0.4115152704
11
# ORCA AIMD Position Step 21, t=10.50 fs, E_Pot=-116.88331615 Hartree, Unit is Angstrom
 H      1.8249432392      0.0500640395      1.2076698942
 C      1.2776949317      0.0201968880      0.2570464752
 H      1.5896693292      0.8661073387     -0.3472976157
 H      1.5296305108     -0.9100427870     -0.3048240055
 C     -0.2504536467      0.0631667622      0.5433812927
 H     -0.5235321276     -0.8117144345      1.1161079463
 H     -0.4796251939      0.9274146176      1.1361131632
 C     -1.1362915340      0.0758027631     -0.7163384315
 H     -0.9597253891      0.9556895086     -1.3323614883
 H     -0.9092575373     -0.8151062925     -1.3519873465
 H     -2.1647896767      0.0247303549     -0.4108572248
11
# ORCA AIMD Position Step 22, t=11.00 fs, E_Pot=-116.88223784 Hartree, Unit is Angstrom
 H      1.8147891555      0.0629344626      1.2198358413
 C      1.2767474061      0.0231238808      0.2612278642
 H      1.5840068528      0.8722105544     -0.3453153138
 H      1.5282464864     -0.9119491586     -0.3041736211
 C     -0.2516148974      0.0668734784      0.5445714281
 H     -0.5192662881     -0.8072829383      1.1169188692
 H     -0.4900964569      0.9306022323      1.1297119944
 C     -1.1384640765      0.0762935567     -0.7183232495
 H     -0.9563793961      0.9547216346     -1.3389526740
 H     -0.9036581327     -0.8152855627     -1.3581225604
 H     -2.1661573593      0.0192203483     -0.4104590510
11
# ORCA AIMD Position Step 23, t=11.50 fs, E_Pot=-116.88158477 Hartree, Unit is Angstrom
 H      1.8044317889      0.0752423817      1.2303749691
 C      1.2757465741      0.0258681557      0.2653488518
 H      1.5783256493      0.8782825679     -0.3431796721
 H      1.5265242773     -0.9109394178     -0.3012295594
 C     -0.2526643634      0.0705006227      0.5455695443
 H     -0.5151355630     -0.8035342317      1.1187062301
 H     -0.5007618607      0.9354073450      1.1246892367
 C     -1.1403538481      0.0765170221     -0.7205395036
 H     -0.9536458651      0.9537149516     -1.3448016170
 H     -0.8991359245     -0.8127720295     -1.3620395685
 H     -2.1690051062      0.0140991450     -0.4104348165
11
# ORCA AIMD Position Step 24, t=12.00 fs, E_Pot=-116.88147190 Hartree, Unit is Angstrom
 H      1.7939751338      0.0868514552      1.2390685198
 C      1.2746842276      0.0284656964      0.2694031290
 H      1.5726734161      0.8840781765     -0.3407559227
 H      1.5245156584     -0.9068702935     -0.2958054482
 C     -0.2536227793      0.0740451639      0.5463469202
 H     -0.5112865262     -0.8005208853      1.1215293337
 H     -0.5114976931      0.9418276827      1.1211222039
 C     -1.1419427689      0.0764707968     -0.7229823024
 H     -0.9516957741      0.9525975271     -1.3497175962
 H     -0.8957765932     -0.8076187944     -1.3636525924
 H     -2.1731395209      0.0094390168     -0.4109341601
11
# ORCA AIMD Position Step 25, t=12.50 fs, E_Pot=-116.88177378 Hartree, Unit is Angstrom
 H      1.7835748961      0.0976478691      1.2458374482
 C      1.2735428183      0.0309746479      0.2733903397
 H      1.5671019672      0.8893717477     -0.3379252877
 H      1.5223386810     -0.8999061377     -0.2879198884
 C     -0.2545199404      0.0775134930      0.5468972281
 H     -0.5078300400     -0.7981823317      1.1253623498
 H     -0.5221199599      0.9496334496      1.1189243020
 C     -1.1432372048      0.0761732388     -0.7256219484
 H     -0.9506650135      0.9513469292     -1.3535645132
 H     -0.8935732326     -0.8001685563     -1.3630985248
 H     -2.1782038805      0.0053112424     -0.4121316761
11
# ORCA AIMD Position Step 26, t=13.00 fs, E_Pot=-116.88219200 Hartree, Unit is Angstrom
 H      1.7734331612      0.1075450252      1.2507463272
 C      1.2722955944      0.0334718900      0.2773165646
 H      1.5616720719      0.8939800583     -0.3346009792
 H      1.5201744187     -0.8905103935     -0.2777915781
 C     -0.2553937067      0.0809188558      0.5472344304
 H     -0.5048412389     -0.7963492991      1.1300954762
 H     -0.5323920630      0.9584032096      1.1178703611
 C     -1.1442643227      0.0756618872     -0.7284054333
 H     -0.9506488837      0.9499972832     -1.3562695424
 H     -0.8924245469     -0.7910362495     -1.3607283785
 H     -2.1837298876      0.0017822749     -0.4142095701
11
# ORCA AIMD Position Step 27, t=13.50 fs, E_Pot=-116.88238865 Hartree, Unit is Angstrom
 H      1.7637886143      0.1164874969      1.2539972088
 C      1.2709074810      0.0360486729      0.2811946038
 H      1.5564568174      0.8977814261     -0.3307414043
 H      1.5182600821     -0.8794207047     -0.2658238686
 C     -0.2562877439      0.0842777137      0.5473883308
 H     -0.5023637185     -0.7947635326      1.1355461337
 H     -0.5420429636      0.9675880814      1.1176392598
 C     -1.1450666608      0.0749911168     -0.7312598441
 H     -0.9516990530      0.9486391082     -1.3578263496
 H     -0.8921394763     -0.7810735033     -1.3570849998
 H     -2.1892019122     -0.0010917065     -0.4173367663
11
# ORCA AIMD Position Step 28, t=14.00 fs, E_Pot=-116.88214247 Hartree, Unit is Angstrom
 H      1.7549026906      0.1244537520      1.2559131092
 C      1.2693368883      0.0388048222      0.2850435867
 H      1.5515432013      0.9007296261     -0.3263594189
 H      1.5168763983     -0.8675995581     -0.2525738061
 C     -0.2572484370      0.0876060230      0.5473988246
 H     -0.5004167230     -0.7931092500      1.1414783481
 H     -0.5507920715      0.9765892492      1.1178638564
 C     -1.1456955826      0.0742281080     -0.7340979767
 H     -0.9538230136      0.9474122126     -1.3582929120
 H     -0.8924511879     -0.7713061213     -1.3528605799
 H     -2.1941230296     -0.0032707112     -0.4216479718
11
# ORCA AIMD Position Step 29, t=14.50 fs, E_Pot=-116.88147046 Hartree, Unit is Angstrom
 H      1.7470420684      0.1314570303      1.2569107522
 C      1.2675386942      0.0418408136      0.2888873643
 H      1.5470318629      0.9028614357     -0.3215268217
 H      1.5163264779     -0.8561504275     -0.2386998668
 C     -0.2583215348      0.0909162340      0.5473099061
 H     -0.4990038354     -0.7910509717      1.1476272805
 H     -0.5583760543      0.9848340410      1.1181791091
 C     -1.1462040800      0.0734462479     -0.7368264437
 H     -0.9569859111      0.9464923577     -1.3577842467
 H     -0.8930435201     -0.7628360126     -1.3488275511
 H     -2.1980743699     -0.0047361807     -0.4272256100
11
# ORCA AIMD Position Step 30, t=15.00 fs, E_Pot=-116.88065181 Hartree, Unit is Angstrom
 H      1.7404581211      0.1375438257      1.2574628092
 C      1.2654685838      0.0452473207      0.2927513533
 H      1.5430349260      0.9042968375     -0.3163734848
 H      1.5169040310     -0.8461935745     -0.2248857765
 C     -0.2595490246      0.0942153877      0.5471642321
 H     -0.4981217610     -0.7882720719      1.1537254620
 H     -0.5645734081      0.9918402393      1.1182624038
 C     -1.1466393151      0.0727156897     -0.7393561491
 H     -0.9611144563      0.9460727809     -1.3564606087
 H     -0.8935908279     -0.7567062647     -1.3457417552
 H     -2.2007623929     -0.0054947638     -0.4340865357
11
# ORCA AIMD Position Step 31, t=15.50 fs, E_Pot=-116.88011421 Hartree, Unit is Angstrom
 H      1.7353643203      0.1427897419      1.2580512413
 C      1.2630886673      0.0490928498      0.2966580791
 H      1.5396718795      0.9052309860     -0.3110806276
 H      1.5188515344     -0.8387082803     -0.2117461058
 C     -0.2609665661      0.0975042852      0.5469986916
 H     -0.4977681313     -0.7845093916      1.1595276401
 H     -0.5692241838      0.9972638439      1.1178635676
 C     -1.1470354898      0.0720921036     -0.7416140652
 H     -0.9661024478      0.9463420567     -1.3545120482
 H     -0.8938072155     -0.7537433387     -1.3442280775
 H     -2.2020512749     -0.0055802923     -0.4421745280
11
# ORCA AIMD Position Step 32, t=16.00 fs, E_Pot=-116.88021297 Hartree, Unit is Angstrom
 H      1.7319131276      0.1472930363      1.2591153968
 C      1.2603738165      0.0534116367      0.3006224964
 H      1.5370633202      0.9059172299     -0.3058678533
 H      1.5223138642     -0.8343675453     -0.1997309744
 C     -0.2626016266      0.1007774698      0.5468411324
 H     -0.4979476569     -0.7795808912      1.1648319629
 H     -0.5722438176      1.0009298092      1.1168245040
 C     -1.1474080619      0.0716062257     -0.7435541004
 H     -0.9718172936      0.9474601853     -1.3521405975
 H     -0.8934948008     -0.7544090449     -1.3446725137
 H     -2.2019789813     -0.0050539956     -0.4513589870
11
# ORCA AIMD Position Step 33, t=16.50 fs, E_Pot=-116.88102137 Hartree, Unit is Angstrom
 H      1.7301745967      0.1511667981      1.2610008441
 C      1.2573176206      0.0581953113      0.3046487569
 H      1.5353223660      0.9066410593     -0.3009738901
 H      1.5272981824     -0.8334079098     -0.1890557883
 C     -0.2644723303      0.1040237285      0.5467082213
 H     -0.4986763064     -0.7734048620      1.1694961381
 H     -0.5736309823      1.0028473480      1.1150894388
 C     -1.1477506351      0.0712576695     -0.7451642157
 H     -0.9781068626      0.9495352505     -1.3495417642
 H     -0.8925768634     -0.7587053828     -1.3471521059
 H     -2.2007558972     -0.0040031293     -0.4614400144
11
# ORCA AIMD Position Step 34, t=17.00 fs, E_Pot=-116.88227075 Hartree, Unit is Angstrom
 H      1.7301196098      0.1545311804      1.2639167928
 C      1.2539365820      0.0633917280      0.3087298232
 H      1.5345437647      0.9076861584     -0.2966317404
 H      1.5336528124     -0.8355770893     -0.1796793167
 C     -0.2665869807      0.1072269299      0.5466043858
 H     -0.4999834079     -0.7660101839      1.1734478981
 H     -0.5734696183      1.0032113616      1.1127066497
 C     -1.1480356280      0.0710155886     -0.7464676026
 H     -0.9848060642      0.9526034272     -1.3468873351
 H     -0.8911045880     -0.7661656172     -1.3514266566
 H     -2.1987447327     -0.0025380976     -0.4721598932
11
# ORCA AIMD Position Step 35, t=17.50 fs, E_Pot=-116.88348528 Hartree, Unit is Angstrom
 H      1.7316110265      0.1575071564      1.2679103034
 C      1.2502714458      0.0689122778      0.3128500869
 H      1.5347912914      0.9092958570     -0.2930402944
 H      1.5410735231     -0.8401789854     -0.1713373267
 C     -0.2689442394      0.1103671825      0.5465218515
 H     -0.5019116917     -0.7575374173      1.1766894141
 H     -0.5719250268      1.0023902149      1.1098217646
 C     -1.1482190066      0.0708262764     -0.7475176117
 H     -0.9917427164      0.9566153561     -1.3443116509
 H     -0.8892355684     -0.7759357057     -1.3569944950
 H     -2.1964207505     -0.0007879501     -0.4832206029
11
# ORCA AIMD Position Step 36, t=18.00 fs, E_Pot=-116.88421999 Hartree, Unit is Angstrom
 H      1.7344055289      0.1602127870      1.2728633704
 C      1.2463853227      0.0746458694      0.3169896986
 H      1.5360848677      0.9116356645     -0.2903361619
 H      1.5491364183     -0.8462003523     -0.1636180750
 C     -0.2715339851      0.1134224379      0.5464418986
 H     -0.5045153235     -0.7482304311      1.1792953078
 H     -0.5692335591      1.0008985056      1.1066618754
 C     -1.1482483208      0.0706251095     -0.7483881510
 H     -0.9987424655      0.9614315672     -1.3419033091
 H     -0.8871926692     -0.7869182525     -1.3631916016
 H     -2.1943131231      0.0011058936     -0.4943061889
11
# ORCA AIMD Position Step 37, t=18.50 fs, E_Pot=-116.88425635 Hartree, Unit is Angstrom
 H      1.7381673323      0.1627621406      1.2785144085
 C      1.2423590991      0.0804755281      0.3211287149
 H      1.5383896408      0.9147641017     -0.2885707942
 H      1.5573479664     -0.8524777435     -0.1560534153
 C     -0.2743388882      0.1163706953      0.5463375033
 H     -0.5078559719     -0.7384182504      1.1814038445
 H     -0.5656855049      0.9993529062      1.1035094496
 C     -1.1480725350      0.0703490718     -0.7491622955
 H     -1.0056327233      0.9668284845     -1.3397035756
 H     -0.8852168555     -0.7979358105     -1.3693030528
 H     -2.1929318810      0.0029975390     -0.5051076410
11
# ORCA AIMD Position Step 38, t=19.00 fs, E_Pot=-116.88366503 Hartree, Unit is Angstrom
 H      1.7424925590      0.1652661940      1.2845001435
 C      1.2382851072      0.0862933886      0.3252497320
 H      1.5416095762      0.9186185465     -0.2876979864
 H      1.5651994632     -0.8578605826     -0.1482010177
 C     -0.2773366690      0.1191928614      0.5461774444
 H     -0.5119969540     -0.7284872422      1.1832010674
 H     -0.5616016084      0.9984105395      1.1006658976
 C     -1.1476518718      0.0699468252     -0.7499215642
 H     -1.0122457654      0.9725147404     -1.3377116549
 H     -0.8835255769     -0.8078766068     -1.3746610304
 H     -2.1926898519      0.0047454041     -0.5153468578
11
# ORCA AIMD Position Step 39, t=19.50 fs, E_Pot=-116.88273734 Hartree, Unit is Angstrom
 H      1.7469408864      0.1678346193      1.2904096588
 C      1.2342600509      0.0920114004      0.3293387914
 H      1.5455876279      0.9230199095     -0.2875751064
 H      1.5722157922     -0.8613416541     -0.1397042540
 C     -0.2805028640      0.1218760721      0.5459316852
 H     -0.5169955935     -0.7188448226      1.1848982595
 H     -0.5573052214      0.9986931323      1.0984069481
 C     -1.1469659862      0.0693850151     -0.7507373196
 H     -1.0184212698      0.9781556650     -1.3358957077
 H     -0.8822825467     -0.8158037598     -1.3787168567
 H     -2.1938333089      0.0062206505     -0.5247958936
11
# ORCA AIMD Position Step 40, t=20.00 fs, E_Pot=-116.88184335 Hartree, Unit is Angstrom
 H      1.7510699848      0.1705774323      1.2958410044
 C      1.2303779367      0.0975670742      0.3333851730
 H      1.5501132935      0.9276955982     -0.2879783554
 H      1.5779935592     -0.8621461453     -0.1303278649
 C     -0.2838137351      0.1244169463      0.5455774388
 H     -0.5228941644     -0.7098775133      1.1867042624
 H     -0.5530939903      1.0007057179      1.0969353452
 C     -1.1460191424      0.0686510544     -0.7516647417
 H     -1.0240086228      0.9834025566     -1.3342075322
 H     -0.8815794254     -0.8210260464     -1.3810864415
 H     -2.1963960951      0.0073138942     -0.5332884727
11
# ORCA AIMD Position Step 41, t=20.50 fs, E_Pot=-116.88128334 Hartree, Unit is Angstrom
 H      1.7544684984      0.1736058483      1.3004522989
 C      1.2267234776      0.1029250894      0.3373808987
 H      1.5549367880      0.9323161511     -0.2886292319
 H      1.5822282291     -0.8597842501     -0.1199743440
 C     -0.2872488225      0.1268239756      0.5451049130
 H     -0.5297101977     -0.7019080299      1.1887956462
 H     -0.5492162367      1.0047638729      1.0963395489
 C     -1.1448416502      0.0677534202     -0.7527391662