10
# ORCA AIMD Position Step 0, t=0.00 fs, E_Pot=-206.22712063 Hartree, Unit is Angstrom
 H     -0.0000000000      2.1181981059      0.7485917047
 H      0.0000000000     -2.1181981059      0.7485917047
 H     -0.0000000000      1.3509263182     -1.8392189784
 H     -0.0000000000     -1.3509263182     -1.8392189784
 H     -0.0000000000      0.0000000000      2.1473393191
 C      0.0000000000      1.1282756354      0.3173848388
 C      0.0000000000     -1.1282756354      0.3173848388
 C      0.0000000000      0.7159366566     -0.9690644858
 C      0.0000000000     -0.7159366566     -0.9690644858
 N     -0.0000000000      0.0000000000      1.1269745215
10
# ORCA AIMD Position Step 1, t=0.50 fs, E_Pot=-206.22690070 Hartree, Unit is Angstrom
 H      0.0051071144      2.1172435244      0.7502076311
 H     -0.0030885324     -2.1044177714      0.7617568671
 H      0.0062178094      1.3500413856     -1.8404118243
 H      0.0082221964     -1.3603691995     -1.8347202755
 H     -0.0083566390      0.0050381109      2.1418128348
 C     -0.0032701809      1.1292291912      0.3145769278
 C     -0.0005322878     -1.1304261444      0.3146131200
 C      0.0003040837      0.7138656528     -0.9712955685
 C     -0.0038354968     -0.7158864580     -0.9710104116
 N     -0.0007680670     -0.0043182916      1.1241706982
10
# ORCA AIMD Position Step 2, t=1.00 fs, E_Pot=-206.22629781 Hartree, Unit is Angstrom
 H      0.0101412803      2.1163031838      0.7517540774
 H     -0.0061447240     -2.0917136507      0.7749296721
 H      0.0123889537      1.3491284751     -1.8416590601
 H      0.0163217086     -1.3695895975     -1.8303167653
 H     -0.0166799917      0.0098707370      2.1366898580
 C     -0.0065160617      1.1301205565      0.3118036616
 C     -0.0010726645     -1.1324882727      0.3118597614
 C      0.0006007072      0.7118307086     -0.9735178387
 C     -0.0076367096     -0.7158858705     -0.9729526187
 N     -0.0015363447     -0.0085460020      1.1213348783
10
# ORCA AIMD Position Step 3, t=1.50 fs, E_Pot=-206.22544364 Hartree, Unit is Angstrom
 H      0.0150495748      2.1153752782      0.7531635255
 H     -0.0091518275     -2.0809760964      0.7881402490
 H      0.0184898121      1.3481571997     -1.8430093338
 H      0.0242064592     -1.3783976136     -1.8260702963
 H     -0.0249711357      0.0143206831      2.1322790890
 C     -0.0097254805      1.1308954095      0.3090872110
 C     -0.0016309860     -1.1343946267      0.3091346619
 C      0.0008839321      0.7098600006     -0.9757311120
 C     -0.0113838327     -0.7159839730     -0.9748967080
 N     -0.0023076220     -0.0126108667      1.1184327496
10
# ORCA AIMD Position Step 4, t=2.00 fs, E_Pot=-206.22448652 Hartree, Unit is Angstrom
 H      0.0197806418      2.1144457744      0.7543670358
 H     -0.0120959994     -2.0728493398      0.8013405406
 H      0.0244970820      1.3470969649     -1.8445038785
 H      0.0317859473     -1.3866100422     -1.8220382821
 H     -0.0332323381      0.0182226935      2.1287622709
 C     -0.0128865246      1.1315053754      0.3064471799
 C     -0.0022169450     -1.1361007302      0.3064539265
 C      0.0011482544      0.7079799264     -0.9779354361
 C     -0.0150576664     -0.7162268641     -0.9768496763
 N     -0.0030845982     -0.0164444732      1.1154420067
10
# ORCA AIMD Position Step 5, t=2.50 fs, E_Pot=-206.22353617 Hartree, Unit is Angstrom
 H      0.0242848350      2.1134892715      0.7552960963
 H     -0.0149641538     -2.0676556290      0.8143602749
 H      0.0303877158      1.3459183966     -1.8461754735
 H      0.0389727488     -1.3940618573     -1.8182820686
 H     -0.0414634536      0.0214246579      2.1261649218
 C     -0.0159876395      1.1319092025      0.3038999400
 C     -0.0028401351     -1.1375914208      0.3038430823
 C      0.0013886102      0.7062140837     -0.9801311094
 C     -0.0186398450     -0.7166555889     -0.9788191378
 N     -0.0038701136     -0.0199836122      1.1123551149
10
# ORCA AIMD Position Step 6, t=3.00 fs, E_Pot=-206.22263972 Hartree, Unit is Angstrom
 H      0.0285144007      2.1124718422      0.7558851142
 H     -0.0177417698     -2.0653751604      0.8268876049
 H      0.0361388511      1.3445950080     -1.8480481429
 H      0.0456844018     -1.4006170222     -1.8148744809
 H     -0.0496584849      0.0237891843      2.1243551898
 C     -0.0190177314      1.1320733910      0.3014581529
 C     -0.0035101022     -1.1388820806      0.3013380845
 C      0.0016003639      0.7045823204     -0.9823186505
 C     -0.0221130746     -0.7173043538     -0.9808122745
 N     -0.0046673627     -0.0231715925      1.1091797338
10
# ORCA AIMD Position Step 7, t=3.50 fs, E_Pot=-206.22179946 Hartree, Unit is Angstrom
 H      0.0324238605      2.1113555045      0.7560744832
 H     -0.0204115669     -2.0656851936      0.8384827593
 H      0.0417279782      1.3431047811     -1.8501372089
 H      0.0518455327     -1.4061772630     -1.8119051221
 H     -0.0578037332      0.0251964377      2.1230706427
 C     -0.0219662526      1.1319723606      0.2991304184
 C     -0.0042363514     -1.1400144692      0.2989834369
 C      0.0017792567      0.7030998408     -0.9844987364
 C     -0.0254613189     -0.7181991156     -0.9828346756
 N     -0.0054800239     -0.0259595860      1.1059368484
10
# ORCA AIMD Position Step 8, t=4.00 fs, E_Pot=-206.22101417 Hartree, Unit is Angstrom
 H      0.0359703556      2.1101035006      0.7558138902
 H     -0.0229534623     -2.0680441186      0.8486219365
 H      0.0471328559      1.3414316352     -1.8524496543
 H      0.0573896538     -1.4106877427     -1.8094824526
 H     -0.0658774034      0.0255486300      2.1219664394
 C     -0.0248232874      1.1315882543      0.2969210515
 C     -0.0050282315     -1.1410485373      0.2968275817
 C      0.0019213620      0.7017764583     -0.9866721217
 C     -0.0286699658     -0.7193567323     -0.9848891254
 N     -0.0063122689     -0.0283079030      1.1026571414
10
# ORCA AIMD Position Step 9, t=4.50 fs, E_Pot=-206.22031288 Hartree, Unit is Angstrom
 H      0.0391142285      2.1086858728      0.7550656018
 H     -0.0253457840     -2.0717966820      0.8567597355
 H      0.0523313835      1.3395662160     -1.8549842022
 H      0.0622607017     -1.4141387437     -1.8077317781
 H     -0.0738511514      0.0247758207      2.1206749120
 C     -0.0275797346      1.1309104762      0.2948299373
 C     -0.0058946718     -1.1420524782      0.2949165236
 C      0.0020231176      0.7006160523     -0.9888395779
 C     -0.0317260639     -0.7207847054     -0.9869745079
 N     -0.0071685878     -0.0301870494      1.0993764594
10
# ORCA AIMD Position Step 10, t=5.00 fs, E_Pot=-206.21976103 Hartree, Unit is Angstrom
 H      0.0418192720      2.1070839413      0.7538062573
 H     -0.0275674176     -2.0762752091      0.8623921195
 H      0.0573020008      1.3375078914     -1.8577337842
 H      0.0664135939     -1.4165641025     -1.8067914310
 H     -0.0816937962      0.0228411532      2.1188626518
 C     -0.0302271722      1.1299351412      0.2928528839
 C     -0.0068440581     -1.1430924883      0.2932883941
 C      0.0020810999      0.6996162770     -0.9910017934
 C     -0.0346180997     -0.7224815815     -0.9890852477
 N     -0.0080536577     -0.0315790969      1.0961307655
10
# ORCA AIMD Position Step 11, t=5.50 fs, E_Pot=-206.21943943 Hartree, Unit is Angstrom
 H      0.0440532591      2.1052938982      0.7520286828
 H     -0.0296000722     -2.0808845300      0.8651128669
 H      0.0620235476      1.3352647093     -1.8606857140
 H      0.0698142238     -1.4180346974     -1.8068033081
 H     -0.0893752848      0.0197454887      2.1162808122
 C     -0.0327580104      1.1286645130      0.2909817089
 C     -0.0078839070     -1.1442247583      0.2919679167
 C      0.0020920641      0.6987685357     -0.9931593331
 C     -0.0373360897     -0.7244378096     -0.9912110568
 N     -0.0089719998     -0.0324782297      1.0929521200
10
# ORCA AIMD Position Step 12, t=6.00 fs, E_Pot=-206.21941030 Hartree, Unit is Angstrom
 H      0.0457883397      2.1033286922      0.7497424514
 H     -0.0314303629     -2.0851632841      0.8646544382
 H      0.0664753557      1.3328531229     -1.8638221311
 H      0.0724384791     -1.4186484687     -1.8079007393
 H     -0.0968711629      0.0155297673      2.1128003747
 C     -0.0351655448      1.1271065405      0.2892045121
 C     -0.0090206293     -1.1454895728      0.2909627186
 C      0.0020529204      0.6980581955     -0.9953126304
 C     -0.0398714758     -0.7266369975     -0.9933373337
 N     -0.0099276567     -0.0328910647      1.0898656504
10
# ORCA AIMD Position Step 13, t=6.50 fs, E_Pot=-206.21968780 Hartree, Unit is Angstrom
 H      0.0470012623      2.1012179048      0.7469732541
 H     -0.0330513720     -2.0888227438      0.8609125777
 H      0.0706373126      1.3302972042     -1.8671202703
 H      0.0742704530     -1.4185179431     -1.8101943526
 H     -0.1041663931      0.0102747365      2.1084299442
 C     -0.0374439882      1.1252745284      0.2875060398
 C     -0.0102593413     -1.1469076584      0.2902613599
 C      0.0019607253      0.6974650482     -0.9974620091
 C     -0.0422169616     -0.7290574194     -0.9954461433
 N     -0.0109239065     -0.0328365625      1.0868878766
10
# ORCA AIMD Position Step 14, t=7.00 fs, E_Pot=-206.22022497 Hartree, Unit is Angstrom
 H      0.0476734020      2.0990056526      0.7437611443
 H     -0.0344635662     -2.0917663948      0.8539559124
 H      0.0744899102      1.3276273812     -1.8705525402
 H      0.0753001315     -1.4177567935     -1.8137574215
 H     -0.1112579131      0.0040980200      2.1033151001
 C     -0.0395884850      1.1231869489      0.2858681162
 C     -0.0116037361     -1.1484785503      0.2898329658
 C      0.0018126887      0.6969639792     -0.9996077405
 C     -0.0443663178     -0.7316735962     -0.9975176756
 N     -0.0119630569     -0.0323455235      1.0840264950
10
# ORCA AIMD Position Step 15, t=7.50 fs, E_Pot=-206.22092142 Hartree, Unit is Angstrom
 H      0.0477905754      2.0967467326      0.7401577913
 H     -0.0356750145     -2.0940927567      0.8440220280
 H      0.0780142524      1.3248788296     -1.8740865361
 H      0.0755209536     -1.4164672911     -1.8186125540
 H     -0.1181553214     -0.0028510921      2.0977194966
 C     -0.0415951062      1.1208673666      0.2842701294
 C     -0.0130560210     -1.1501807614      0.2896283198
 C      0.0016061926      0.6965258035     -1.0017501301
 C     -0.0463141930     -0.7344577679     -0.9995320150
 N     -0.0130463643     -0.0314597017      1.0812815985
10
# ORCA AIMD Position Step 16, t=8.00 fs, E_Pot=-206.22164934 Hartree, Unit is Angstrom
 H      0.0473426912      2.0945014233      0.7362229652
 H     -0.0367008819     -2.0960815924      0.8315005747
 H      0.0811920509      1.3220896902     -1.8776851844
 H      0.0749277668     -1.4147305400     -1.8247217126
 H     -0.1248793172     -0.0103984008      2.0919891177
 C     -0.0434608338      1.1183444201      0.2826895636
 C     -0.0146169272     -1.1519737006      0.2895823510
 C      0.0013388201      0.6961182278     -1.0038896209
 C     -0.0480559790     -0.7373811005     -1.0014710105
 N     -0.0141741100     -0.0302305933      1.0786481861
10
# ORCA AIMD Position Step 17, t=8.50 fs, E_Pot=-206.22228918 Hartree, Unit is Angstrom
 H      0.0463233327      2.0923295360      0.7320205878
 H     -0.0375621881     -2.0981614228      0.8169031689
 H      0.0840056639      1.3192992512     -1.8813071515
 H      0.0735156592     -1.4126009902     -1.8319812821
 H     -0.1314578657     -0.0183521385      2.0865030550
 C     -0.0451835486      1.1156517890      0.2811025503
 C     -0.0162857970     -1.1538014675      0.2896179810
 C      0.0010083951      0.6957068941     -1.0060268885
 C     -0.0495877721     -0.7404145099     -1.0033200209
 N     -0.0153458364     -0.0287179684      1.0761196692
10
# ORCA AIMD Position Step 18, t=9.00 fs, E_Pot=-206.22276247 Hartree, Unit is Angstrom
 H      0.0447293671      2.0902844445      0.7276147416
 H     -0.0382838823     -2.1008556128      0.8008201880
 H      0.0864381901      1.3165462023     -1.8849075832
 H      0.0712799447     -1.4101060191     -1.8402233018
 H     -0.1379204585     -0.0265098652      2.0816168981
 C     -0.0467620283      1.1128280562      0.2794844099
 C     -0.0180607493     -1.1555986785      0.2896512399
 C      0.0006130318      0.6952564589     -1.0081629057
 C     -0.0509064492     -0.7435290487     -1.0050693266
 N     -0.0165607210     -0.0269882162      1.0736918848
10
# ORCA AIMD Position Step 19, t=9.50 fs, E_Pot=-206.22304835 Hartree, Unit is Angstrom
 H      0.0425606627      2.0884078709      0.7230660254
 H     -0.0388924288     -2.1047065574      0.7838666353
 H      0.0884736181      1.3138670709     -1.8884392326
 H      0.0682173387     -1.4072505184     -1.8492231617
 H     -0.1442913576     -0.0346641239      2.0776075703
 C     -0.0481959552      1.1099163660      0.2778101782
 C     -0.0199389107     -1.1572982608      0.2895973771
 C      0.0001511892      0.6947316676     -1.0102989505
 C     -0.0520098492     -0.7466958877     -1.0067150476
 N     -0.0178180297     -0.0251125705      1.0713669112
10
# ORCA AIMD Position Step 20, t=10.00 fs, E_Pot=-206.22317565 Hartree, Unit is Angstrom
 H      0.0398199801      2.0867261469      0.7184285978
 H     -0.0394133084     -2.1101833905      0.7666229714
 H      0.0900970156      1.3112949310     -1.8918539979
 H      0.0643281077     -1.4040255908     -1.8587131476
 H     -0.1505831864     -0.0426066036      2.0746299179
 C     -0.0494859266      1.1069637824      0.2760551277
 C     -0.0219166794     -1.1588406199      0.2893773659
 C     -0.0003782741      0.6940983953     -1.0124365464
 C     -0.0528970306     -0.7498860010     -1.0082594676
 N     -0.0191175536     -0.0231652579      1.0691558801
10
# ORCA AIMD Position Step 21, t=10.50 fs, E_Pot=-206.22319397 Hartree, Unit is Angstrom
 H      0.0365130705      2.0852484903      0.7137481579
 H     -0.0398690121     -2.1175869415      0.7495807043
 H      0.0912947437      1.3088584325     -1.8951048355
 H      0.0596187840     -1.4004198354     -1.8684004144
 H     -0.1567924035     -0.0501312657      2.0726942250
 C     -0.0506334638      1.1040202716      0.2741953108
 C     -0.0239899718     -1.1601828737      0.2889238733
 C     -0.0009760460      0.6933246238     -1.0145773339
 C     -0.0535685573     -0.7530697146     -1.0097107456
 N     -0.0204599233     -0.0212215873      1.0670800727
10
# ORCA AIMD Position Step 22, t=11.00 fs, E_Pot=-206.22314046 Hartree, Unit is Angstrom
 H      0.0326489667      2.0839675636      0.7090609761
 H     -0.0402780971     -2.1269725703      0.7331040823
 H      0.0920546760      1.3065811515     -1.8981479552
 H      0.0541049343     -1.3964314314     -1.8779874570
 H     -0.1628978919     -0.0570374138      2.0716696503
 C     -0.0516410135      1.1011372731      0.2722081564
 C     -0.0261544018     -1.1613062704      0.2881856481
 C     -0.0016423109      0.6923813330     -1.0167228926
 C     -0.0540267646     -0.7562162922     -1.0110820657
 N     -0.0218467134     -0.0193559777      1.0651699131
10
# ORCA AIMD Position Step 23, t=11.50 fs, E_Pot=-206.22302272 Hartree, Unit is Angstrom
 H      0.0282404121      2.0828622342      0.7043939357
 H     -0.0406555990     -2.1381119293      0.7174163790
 H      0.0923663988      1.3044812149     -1.9009451575
 H      0.0478134987     -1.3920792988     -1.8871929717
 H     -0.1688631274     -0.0631337268      2.0713125613
 C     -0.0525119356      1.0983658761      0.2700731455
 C     -0.0284053637     -1.1622199069      0.2871295535
 C     -0.0023767056      0.6912432920     -1.0188745431
 C     -0.0542759598     -0.7592937110     -1.0123903465
 N     -0.0232803046     -0.0176399361      1.0634619369
10
# ORCA AIMD Position Step 24, t=12.00 fs, E_Pot=-206.22282818 Hartree, Unit is Angstrom
 H      0.0233043584      2.0819021268      0.6997654245
 H     -0.0410146313     -2.1505059875      0.7026123485
 H      0.0922213644      1.3025711042     -1.9034660930
 H      0.0407843318     -1.3874119249     -1.8957710629
 H     -0.1746414724     -0.0682437916      2.0713131377
 C     -0.0532504797      1.0957546928      0.2677725595
 C     -0.0307380262     -1.1629596672      0.2857400814
 C     -0.0031782832      0.6898897272     -1.0210331669
 C     -0.0543225291     -0.7622687221     -1.0136546893
 N     -0.0247635370     -0.0161400360      1.0619942693
10
# ORCA AIMD Position Step 25, t=12.50 fs, E_Pot=-206.22255094 Hartree, Unit is Angstrom
 H      0.0178624347      2.0810532823      0.6951868250
 H     -0.0413685821     -2.1634468395      0.6886906354
 H      0.0916129893      1.3008575230     -1.9056901680
 H      0.0330707094     -1.3825128524     -1.9035270068
 H     -0.1801834972     -0.0722129570      2.0713504132
 C     -0.0538617506      1.0933475808      0.2652922629
 C     -0.0331472793     -1.1635826350      0.2840168691
 C     -0.0040454867      0.6883048541     -1.0231990816
 C     -0.0541749390     -0.7651072288     -1.0148947688
 N     -0.0262992281     -0.0149159777      1.0608014203
10
# ORCA AIMD Position Step 26, t=13.00 fs, E_Pot=-206.22221573 Hartree, Unit is Angstrom
 H      0.0119412622      2.0802840847      0.6906642802
 H     -0.0417331709     -2.1761122213      0.6755952380
 H      0.0905366943      1.2993412500     -1.9076078796
 H      0.0247387088     -1.3775022850     -1.9103282064
 H     -0.1854449458     -0.0749156687      2.0711456944
 C     -0.0543516620      1.0911814151      0.2626224659
 C     -0.0356276927     -1.1641584411      0.2819711618
 C     -0.0049761346      0.6864782737     -1.0253719960
 C     -0.0538436238     -0.7677749761     -1.0161293734
 N     -0.0278896505     -0.0140188504      1.0599092503
10
# ORCA AIMD Position Step 27, t=13.50 fs, E_Pot=-206.22188274 Hartree, Unit is Angstrom
 H      0.0055725242      2.0795705842      0.6862003979
 H     -0.0421278074     -2.1876707232      0.6632554070
 H      0.0889898856      1.2980169604     -1.9092214881
 H      0.0158655618     -1.3725347037     -1.9161094392
 H     -0.1903939667     -0.0762620987      2.0705062787
 C     -0.0547268771      1.0892841254      0.2597584068
 C     -0.0381735243     -1.1647595264      0.2796221783
 C     -0.0059674209      0.6844052472     -1.0275510575
 C     -0.0533407756     -0.7702385185     -1.0173752775
 N     -0.0295360576     -0.0134897336      1.0593308058
10
# ORCA AIMD Position Step 28, t=14.00 fs, E_Pot=-206.22163142 Hartree, Unit is Angstrom
 H     -0.0012072311      2.0789004436      0.6817956086
 H     -0.0425760367     -2.1973785271      0.6516172053
 H      0.0869718890      1.2968730264     -1.9105450074
 H      0.0065372421     -1.3677926938     -1.9208719091
 H     -0.1950165065     -0.0762029533      2.0693542192
 C     -0.0549947373      1.0876732013      0.2567008964
 C     -0.0407787847     -1.1654520729      0.2769940170
 C     -0.0070159293      0.6820868664     -1.0297349897
 C     -0.0526800626     -0.7724664104     -1.0186465855
 N     -0.0312383321     -0.0133587503      1.0590635104
10
# ORCA AIMD Position Step 29, t=14.50 fs, E_Pot=-206.22153321 Hartree, Unit is Angstrom
 H     -0.0083570365      2.0782749459      0.6774489899
 H     -0.0431051515     -2.2046562756      0.6406645030
 H      0.0844838618      1.2958913262     -1.9116035421
 H     -0.0031543655     -1.3634774088     -1.9246760420
 H     -0.1993191297     -0.0747317071      2.0677374177
 C     -0.0551631841      1.0863548166      0.2534566717
 C     -0.0434373458     -1.1662886916      0.2741133448
 C     -0.0081176655      0.6795301255     -1.0319223099
 C     -0.0518763113     -0.7744305554     -1.0199546311
 N     -0.0329948020     -0.0136446280      1.0590879882
10
# ORCA AIMD Position Step 30, t=15.00 fs, E_Pot=-206.22162673 Hartree, Unit is Angstrom
 H     -0.0158321439      2.0777087781      0.6731584697
 H     -0.0437452046     -2.2091424108      0.6304303493
 H      0.0815287095      1.2950471109     -1.9124320614
 H     -0.0131143227     -1.3597963080     -1.9276284936
 H     -0.2033288357     -0.0718839632      2.0658221211
 C     -0.0552406781      1.0853236494      0.2500385203
 C     -0.0461430707     -1.1673032743      0.2710078230
 C     -0.0092681048      0.6767478991     -1.0341116048
 C     -0.0509451864     -0.7761076488     -1.0213084392
 N     -0.0348022530     -0.0143547642      1.0593686306
10
# ORCA AIMD Position Step 31, t=15.50 fs, E_Pot=-206.22190469 Hartree, Unit is Angstrom
 H     -0.0235847760      2.0772276073      0.6689204193
 H     -0.0445276826     -2.2107240070      0.6210009074
 H      0.0781110336      1.2943090048     -1.9130737536
 H     -0.0232471275     -1.3569490569     -1.9298644929
 H     -0.2070897007     -0.0677341194      2.0638672893
 C     -0.0552361212      1.0845633985      0.2464651573
 C     -0.0488899458     -1.1685079840      0.2677051078
 C     -0.0104622596      0.6737588247     -1.0363018378
 C     -0.0499029030     -0.7774806345     -1.0227156828
 N     -0.0366561520     -0.0154857398      1.0598558760
10
# ORCA AIMD Position Step 32, t=16.00 fs, E_Pot=-206.22231551 Hartree, Unit is Angstrom
 H     -0.0315649030      2.0768637621      0.6647287475
 H     -0.0454840685     -2.2095472488      0.6125138860
 H      0.0742371312      1.2936392319     -1.9135781482
 H     -0.0334584950     -1.3551127525     -1.9315273654
 H     -0.2106564937     -0.0623899916      2.0621829270
 C     -0.0551587835      1.0840479220      0.2427608556
 C     -0.0516722031     -1.1698922239      0.2642322688
 C     -0.0116947632      0.6705870791     -1.0384926558
 C     -0.0487659989     -0.7785400877     -1.0241839848
 N     -0.0385510791     -0.0170241783      1.0604900161
10
# ORCA AIMD Position Step 33, t=16.50 fs, E_Pot=-206.22277746 Hartree, Unit is Angstrom
 H     -0.0397209547      2.0766505916      0.6605736913
 H     -0.0466444817     -2.2060082832      0.6051524062
 H      0.0699150549      1.2929941709     -1.9139992015
 H     -0.0436562152     -1.3544278897     -1.9327477495
 H     -0.2140858801     -0.0559864638      2.0610768346
 C     -0.0550182402      1.0837428667      0.2389548449
 C     -0.0544844230     -1.1714235123      0.2606155476
 C     -0.0129599738      0.6672620427     -1.0406846600
 C     -0.0475511824     -0.7792854073     -1.0257223419
 N     -0.0404813320     -0.0189478134      1.0612061396
10
# ORCA AIMD Position Step 34, t=17.00 fs, E_Pot=-206.22320096 Hartree, Unit is Angstrom
 H     -0.0480004031      2.0766162726      0.6564405687
 H     -0.0480365786     -2.2007228273      0.5991340884
 H      0.0651547327      1.2923253301     -1.9143935242
 H     -0.0537500704     -1.3549866283     -1.9336254166
 H     -0.2174264340     -0.0486794712      2.0607971930
 C     -0.0548243146      1.0836076168      0.2350805077
 C     -0.0573216089     -1.1730503614      0.2568804741
 C     -0.0142520938      0.6638178398     -1.0428796055
 C     -0.0462752567     -0.7797256939     -1.0273424075
 N     -0.0424416281     -0.0212266193      1.0619395880
10
# ORCA AIMD Position Step 35, t=17.50 fs, E_Pot=-206.22351328 Hartree, Unit is Angstrom
 H     -0.0563501836      2.0767779333      0.6523087966
 H     -0.0496848977     -2.1944714053      0.5946943231
 H      0.0599681330      1.2915808025     -1.9148188867
 H     -0.0636510189     -1.3568248461     -1.9342165102
 H     -0.2207092417     -0.0406414871      2.0614809940
 C     -0.0545870276      1.0835973744      0.2311744033
 C     -0.0601792252     -1.1747073631      0.2530524322
 C     -0.0155653029      0.6602927537     -1.0450804981
 C     -0.0449550991     -0.7798801883     -1.0290593631
 N     -0.0444277824     -0.0238238751      1.0626310983
10
# ORCA AIMD Position Step 36, t=18.00 fs, E_Pot=-206.22367824 Hartree, Unit is Angstrom
 H     -0.0647169612      2.0771369455      0.6481514776
 H     -0.0516108173     -2.1881181963      0.5920626147
 H      0.0543694512      1.2907072056     -1.9153330686
 H     -0.0732700523     -1.3599191141     -1.9345283239
 H     -0.2239411084     -0.0320590904      2.0631190019
 C     -0.0543165476      1.0836651925      0.2272751576
 C     -0.0630531855     -1.1763225732      0.2491577761
 C     -0.0168938986      0.6567285162     -1.0472915682
 C     -0.0436076640     -0.7797781713     -1.0308921666
 N     -0.0464372224     -0.0266971018      1.0632307581
10
# ORCA AIMD Position Step 37, t=18.50 fs, E_Pot=-206.22370276 Hartree, Unit is Angstrom
 H     -0.0730472875      2.0776760866      0.6439358019
 H     -0.0538331847     -2.1825065187      0.5914319793
 H      0.0483752958      1.2896520462     -1.9159930456
 H     -0.0825172292     -1.3641891295     -1.9345225158
 H     -0.2271020202     -0.0231322651      2.0655455090
 C     -0.0540231358      1.0837638040      0.2234222583
 C     -0.0659397858     -1.1778268481      0.2452255111
 C     -0.0182324373      0.6531694773     -1.0495181176
 C     -0.0422499667     -0.7794582779     -1.0328630548
 N     -0.0484692200     -0.0297988909      1.0637000801
10
# ORCA AIMD Position Step 38, t=19.00 fs, E_Pot=-206.22362423 Hartree, Unit is Angstrom
 H     -0.0812877175      2.0783590109      0.6396244152
 H     -0.0563694619     -2.1783427089      0.5929238023
 H      0.0420048533      1.2883663801     -1.9168544348
 H     -0.0913013496     -1.3695053987     -1.9341262029
 H     -0.2301475633     -0.0140742352      2.0684557738
 C     -0.0537170859      1.0838471372      0.2196548052
 C     -0.0688355915     -1.1791640474      0.2412893409
 C     -0.0195758662      0.6496616650     -1.0517662547
 C     -0.0408990168     -0.7789672456     -1.0349963002
 N     -0.0505247840     -0.0330777200      1.0640119140
10
# ORCA AIMD Position Step 39, t=19.50 fs, E_Pot=-206.22348292 Hartree, Unit is Angstrom
 H     -0.0893849679      2.0791321349      0.6351777636
 H     -0.0592369585     -2.1760895162      0.5965537535
 H      0.0352800228      1.2868075736     -1.9179710654
 H     -0.0995305772     -1.3757012553     -1.9332490683
 H     -0.2330157850     -0.0051102835      2.0714475405
 C     -0.0534086534      1.0838714521      0.2160102686
 C     -0.0717373067     -1.1803002283      0.2373896011
 C     -0.0209196394      0.6462517402     -1.0540425525
 C     -0.0395716826     -0.7783581799     -1.0373163253
 N     -0.0526062424     -0.0364788825      1.0641484041
10
# ORCA AIMD Position Step 40, t=20.00 fs, E_Pot=-206.22329514 Hartree, Unit is Angstrom
 H     -0.0972861972      2.0799286957      0.6305572769
 H     -0.0624535523     -2.1758944805      0.6022068008
 H      0.0282255110      1.2849419394     -1.9193945062
 H     -0.1071140865     -1.3825877806     -1.9318037610
 H     -0.2356369794      0.0035256781      2.0740779387
 C     -0.0531079783      1.0837960900      0.2125233116
 C     -0.0746416698     -1.1812296212      0.2335743822
 C     -0.0222598089      0.6429858564     -1.0563536792
 C     -0.0382844892     -0.7776884782     -1.0398453617
 N     -0.0547166152     -0.0399456285      1.0640976043
10
# ORCA AIMD Position Step 41, t=20.50 fs, E_Pot=-206.22304556 Hartree, Unit is Angstrom
 H     -0.1049394603      2.0806744402      0.6257291196
 H     -0.0660373942     -2.1775731339      0.6096291222
 H      0.0208688821      1.2827470046     -1.9211733815
 H     -0.1139645771     -1.3899699424     -1.9297266037
 H     -0.2379444379      0.0115972372      2.0759250400
 C     -0.0528250025      1.0835838772      0.2092247287
 C     -0.0775454151     -1.1819756889      0.2298991615
 C     -0.0235930894      0.6399084314     -1.0587060546
 C     -0.0370533712     -0.7770175728     -1.0426008908
 N     -0.0568589130     -0.0434205455      1.0638495380
10
# ORCA AIMD Position Step 42, t=21.00 fs, E_Pot=-206.22270449 Hartree, Unit is Angstrom
 H     -0.1122943544      2.0812941964      0.6206681344
 H     -0.0700054879     -2.1806516812      0.6184409711
 H      0.0132405549      1.2802131946     -1.9233523318
 H     -0.1200013215     -1.3976622700     -1.9269958651
 H     -0.2398843446      0.0188738924      2.0766443823
 C     -0.0525693862      1.0832012637      0.2061405420
 C     -0.0804453082     -1.1825869114      0.2264246041
 C     -0.0249168944      0.6370608542     -1.0611055793
 C     -0.0358934125     -0.7764046583     -1.0455931299
 N     -0.0590354887     -0.0468471272      1.0633924409
10
# ORCA AIMD Position Step 43, t=21.50 fs, E_Pot=-206.22225727 Hartree, Unit is Angstrom
 H     -0.1193028178      2.0817184853      0.6153615651
 H     -0.0743715204     -2.1844562090      0.6281687083
 H      0.0053737506      1.2773447639     -1.9259705336
 H     -0.1251533046     -1.4055025466     -1.9236454152
 H     -0.2414234938      0.0251407128      2.0760135435
 C     -0.0523504303      1.0826183074      0.2032912839
 C     -0.0833382302     -1.1831284749      0.2232127185
 C     -0.0262293458      0.6344801639     -1.0635574662
 C     -0.0348186093     -0.7759065541     -1.0488228309
 N     -0.0612475386     -0.0501714162      1.0627097420
10
# ORCA AIMD Position Step 44, t=22.00 fs, E_Pot=-206.22172574 Hartree, Unit is Angstrom
 H     -0.1259199969      2.0818893561      0.6098121625
 H     -0.0791436135     -2.1882244436      0.6382892054
 H     -0.0026955938      1.2741598843     -1.9290597663
 H     -0.1293619914     -1.4133622456     -1.9197722606
 H     -0.2425540530      0.0302079394      2.0739607549
 C     -0.0521770098      1.0818086172      0.2006914812
 C     -0.0862212605     -1.1836720098      0.2203220206
 C     -0.0275292599      0.6321977623     -1.0660661871
 C     -0.0338416892     -0.7755758276     -1.0522796464
 N     -0.0634948035     -0.0533435819      1.0617781326
10
# ORCA AIMD Position Step 45, t=22.50 fs, E_Pot=-206.22116966 Hartree, Unit is Angstrom
 H     -0.1321050674      2.0817647576      0.6040403514
 H     -0.0843226412     -2.1912157910      0.6482779447
 H     -0.0109289192      1.2706898837     -1.9326420975