26
# ORCA AIMD Position Step 0, t=0.00 fs, E_Pot=-530.58770707 Hartree, Unit is Angstrom
 C      1.5973075401     -0.7501157709     -0.0348808753
 C     -1.5991497987     -0.7465561001      0.0290659415
 C      0.6575303437     -1.9204908190     -0.0053042743
 C     -0.6621516963     -1.9189031935     -0.0096070811
 C      2.7522754824     -0.7800326819      0.7470265447
 C     -2.7541822525     -0.7675998590     -0.7530496252
 C      1.3838369423      0.3516825582     -0.8628330758
 C     -1.3829998336      0.3482381355      0.8655392417
 C      3.6536768828      0.2708625533      0.7233017096
 C     -3.6530172781      0.2852592354     -0.7211338352
 C      2.2887448153      1.4000150330     -0.8917338988
 C     -2.2853628405      1.3985296964      0.9026086931
 C      3.4234918041      1.3657600425     -0.0956456802
 C     -3.4201658126      1.3732096033      0.1062989149
 H      1.1562594061     -2.8839776023      0.0179847509
 H     -1.1631984205     -2.8809618337     -0.0402795407
 H      2.9417706254     -1.6358151992      1.3824998074
 H     -2.9457863884     -1.6179378316     -1.3952070912
 H      0.5067304733      0.3837469066     -1.4953778927
 H     -0.5058397330      0.3732783203      1.4982926600
 H      4.5409288217      0.2338545685      1.3425498152
 H     -4.5403575635      0.2552267285     -1.3406472008
 H      2.1089386562      2.2467170974     -1.5420113133
 H     -2.1034689062      2.2396825080      1.5594549796
 H      4.1292186884      2.1862086558     -0.1187612039
 H     -4.1239299578      2.1951192532      0.1357495300
26
# ORCA AIMD Position Step 1, t=0.50 fs, E_Pot=-530.58680727 Hartree, Unit is Angstrom
 C      1.5996258255     -0.7510986056     -0.0339270433
 C     -1.6000449719     -0.7417614722      0.0345481522
 C      0.6602841252     -1.9214463448     -0.0054517432
 C     -0.6586120080     -1.9232142341     -0.0075229316
 C      2.7493147197     -0.7786658218      0.7451798850
 C     -2.7569084988     -0.7661114264     -0.7545690829
 C      1.3848163534      0.3489697308     -0.8643035484
 C     -1.3808884183      0.3456329159      0.8648005040
 C      3.6501854981      0.2711283186      0.7229489234
 C     -3.6522843640      0.2792361010     -0.7227304144
 C      2.2899843957      1.3981843198     -0.8946874585
 C     -2.2849297116      1.3956931489      0.9030127553
 C      3.4268117875      1.3633870237     -0.0955053585
 C     -3.4238520050      1.3719975911      0.1045548723
 H      1.1565646163     -2.8865242182      0.0260258172
 H     -1.1578270641     -2.8876081409     -0.0414129466
 H      2.9437986395     -1.6393343300      1.3835290027
 H     -2.9488144145     -1.6117408870     -1.4087408554
 H      0.5040190541      0.3996952978     -1.4841036811
 H     -0.5014993144      0.3707051746      1.4948143333
 H      4.5286465561      0.2249511834      1.3379053270
 H     -4.5483725282      0.2526180137     -1.3400921550
 H      2.1111219912      2.2528903366     -1.5439080595
 H     -2.0981436837      2.2451275746      1.5669033430
 H      4.1301777117      2.1795862649     -0.1226764537
 H     -4.1220742914      2.2127024902      0.1393088169
26
# ORCA AIMD Position Step 2, t=1.00 fs, E_Pot=-530.58433918 Hartree, Unit is Angstrom
 C      1.6019013405     -0.7520940699     -0.0330036200
 C     -1.6009276520     -0.7370908083      0.0399658730
 C      0.6630495405     -1.9224207259     -0.0055865716
 C     -0.6551122173     -1.9274857045     -0.0054352255
 C      2.7463814287     -0.7773652136      0.7433881746
 C     -2.7595916563     -0.7646780735     -0.7561002594
 C      1.3858357931      0.3463070970     -0.8657600860
 C     -1.3787612769      0.3430585506      0.8641018593
 C      3.6466454015      0.2713918261      0.7225604913
 C     -3.6516603480      0.2732747316     -0.7243529019
 C      2.2912361817      1.3963685393     -0.8976532859
 C     -2.2845410826      1.3929454693      0.9034415988
 C      3.4300832396      1.3609912167     -0.0954005064
 C     -3.4275191824      1.3708601840      0.1028708839
 H      1.1569357039     -2.8889945056      0.0339945483
 H     -1.1524421247     -2.8940997602     -0.0424799373
 H      2.9456658130     -1.6422926642      1.3841529515
 H     -2.9516525613     -1.6053295141     -1.4219397379
 H      0.5009692821      0.4154351042     -1.4730780564
 H     -0.4971927414      0.3681409517      1.4913278549
 H      4.5172224867      0.2160884261      1.3338569016
 H     -4.5558148322      0.2499298520     -1.3392680038
 H      2.1133617152      2.2585514392     -1.5454862375
 H     -2.0930565216      2.2496383491      1.5735820414
 H      4.1315088414      2.1733270960     -0.1265551968
 H     -4.1196340475      2.2292378869      0.1426990238
26
# ORCA AIMD Position Step 3, t=1.50 fs, E_Pot=-530.58089767 Hartree, Unit is Angstrom
 C      1.6040832035     -0.7531120202     -0.0321442481
 C     -1.6017841849     -0.7326824323      0.0452361949
 C      0.6658294957     -1.9234290117     -0.0056955586
 C     -0.6517008010     -1.9316662640     -0.0033473218
 C      2.7435118907     -0.7761946254      0.7417074309
 C     -2.7621789713     -0.7633585122     -0.7576488952
 C      1.3869257376      0.3437519522     -0.8671890523
 C     -1.3766100271      0.3405575063      0.8634870388
 C      3.6430257823      0.2716500235      0.7221069968
 C     -3.6512505584      0.2674578615     -0.7260167210
 C      2.2925088349      1.3945841866     -0.9006309094
 C     -2.2842429030      1.3903715485      0.9039101118
 C      3.4332513988      1.3585614539     -0.0953662598
 C     -3.4311291855      1.3698654851      0.1013101782
 H      1.1574342084     -2.8913061520      0.0417962288
 H     -1.1470508101     -2.9002743779     -0.0434141974
 H      2.9472199434     -1.6441980948      1.3840229679
 H     -2.9541139128     -1.5985481450     -1.4344475802
 H      0.4973230530      0.4307173773     -1.4625328565
 H     -0.4929681388      0.3656043041      1.4878418605
 H      4.5074776766      0.2073265444      1.3309637289
 H     -4.5621589021      0.2470901028     -1.3379622244
 H      2.1156944491      2.2632293311     -1.5464713459
 H     -2.0884339248      2.2524164632      1.5788189180
 H      4.1335455467      2.1677767569     -0.1303526865
 H     -4.1161497429      2.2437400804      0.1457458885
26
# ORCA AIMD Position Step 4, t=2.00 fs, E_Pot=-530.57720236 Hartree, Unit is Angstrom
 C      1.6061217177     -0.7541617148     -0.0313819117
 C     -1.6026026008     -0.7286697611      0.0502776579
 C      0.6686251189     -1.9244853070     -0.0057659008
 C     -0.6484209341     -1.9357072848     -0.0012624099
 C      2.7407393735     -0.7752061055      0.7401849163
 C     -2.7646180180     -0.7622058071     -0.7592177570
 C      1.3881061305      0.3413588589     -0.8685835359
 C     -1.3744282572      0.3381740116      0.8629987991
 C      3.6393121900      0.2718988164      0.7215712827
 C     -3.6511475207      0.2618677466     -0.7277286044
 C      2.2938121243      1.3928403378     -0.9036147399
 C     -2.2840810483      1.3880363086      0.9044206115
 C      3.4362700324      1.3560948975     -0.0954372248
 C     -3.4346340470      1.3690636759      0.0999314040
 H      1.1581218600     -2.8933863774      0.0493387282
 H     -1.1416698662     -2.9059960931     -0.0441515074
 H      2.9483384330     -1.6446928588      1.3828907299
 H     -2.9560331219     -1.5913093842     -1.4459606548
 H      0.4929308303      0.4453035073     -1.4526215796
 H     -0.4888617392      0.3631155524      1.4843749134
 H      4.5000369184      0.1987251620      1.3296497167
 H     -4.5670057744      0.2440287076     -1.3360480431
 H      2.1181369742      2.2665564573     -1.5466680814
 H     -2.0844572071      2.2528861481      1.5821164805
 H      4.1365412155      2.1631895746     -0.1340262051
 H     -4.1113288339      2.2554234110      0.1482900036
26
# ORCA AIMD Position Step 5, t=2.50 fs, E_Pot=-530.57383946 Hartree, Unit is Angstrom
 C      1.6079699332     -0.7552513331     -0.0307481639
 C     -1.6033725128     -0.7251779911      0.0550124401
 C      0.6714348526     -1.9256020992     -0.0057854627
 C     -0.6453091561     -1.9395629993      0.0008164831
 C      2.7380922979     -0.7744368470      0.7388562552
 C     -2.7668579616     -0.7612637288     -0.7608047998
 C      1.3893840708      0.3391788657     -0.8699439189
 C     -1.3722130197      0.3359524926      0.8626769130
 C      3.6355145399      0.2721317465      0.7209544308
 C     -3.6514253964      0.2565841555     -0.7294843945
 C      2.2951570448      1.3911366808     -0.9065929640
 C     -2.2841003821      1.3859805705      0.9049610379
 C      3.4391048562      1.3536003108     -0.0956473202
 C     -3.4379756048      1.3684820441      0.0987865214
 H      1.1590610280     -2.8951783525      0.0565344994
 H     -1.1363292347     -2.9111649168     -0.0446311099
 H      2.9489387241     -1.6435884480      1.3806338416
 H     -2.9572740019     -1.5836150486     -1.4562514964
 H      0.4877757037      0.4589627509     -1.4434101757
 H     -0.4848932379      0.3606974650      1.4809587811
 H      4.4952295308      0.1903554701      1.3301327505
 H     -4.5701209119      0.2406813808     -1.3335036730
 H      2.1206820843      2.2682995640     -1.5459800752
 H     -2.0812526407      2.2507333931      1.5831819755
 H      4.1406333572      2.1596897308     -0.1375335320
 H     -4.1050687392      2.2637545594      0.1501949791
26
# ORCA AIMD Position Step 6, t=3.00 fs, E_Pot=-530.57108953 Hartree, Unit is Angstrom
 C      1.6095851070     -0.7563874570     -0.0302724514
 C     -1.6040848172     -0.7223208714      0.0593685906
 C      0.6742537188     -1.9267897316     -0.0057430320
 C     -0.6423945110     -1.9431906979      0.0028864577
 C      2.7355928737     -0.7739074004      0.7377436399
 C     -2.7688509961     -0.7605639809     -0.7624019177
 C      1.3907533749      0.3372586985     -0.8712771536
 C     -1.3699660436      0.3339356167      0.8625561730
 C      3.6316710075      0.2723389455      0.7202787455
 C     -3.6521359104      0.2516821565     -0.7312680174
 C      2.2965557544      1.3894626451     -0.9095471968
 C     -2.2843435752      1.3842189267      0.9055045639
 C      3.4417355006      1.3510994997     -0.0960294775
 C     -3.4410864729      1.3681221486      0.0979190608
 H      1.1603145971     -2.8966460802      0.0633024538
 H     -1.1310738726     -2.9157223862     -0.0447968710
 H      2.9489850120     -1.6408842759      1.3772692858
 H     -2.9577344321     -1.5755666965     -1.4651849176
 H      0.4819764459      0.4714708516     -1.4348824053
 H     -0.4810635210      0.3583759586      1.4776399931
 H      4.4930378598      0.1823116300      1.3323869964
 H     -4.5714556253      0.2369934155     -1.3304204115
 H      2.1232970682      2.2683770201     -1.5444193440
 H     -2.0788861134      2.2459239938      1.5819408753
 H      4.1458238295      2.1572513402     -0.1408316917
 H     -4.0974625807      2.2684830692      0.1513538853
26
# ORCA AIMD Position Step 7, t=3.50 fs, E_Pot=-530.56890099 Hartree, Unit is Angstrom
 C      1.6109299948     -0.7575745412     -0.0299815641
 C     -1.6047312392     -0.7201976443      0.0632822278
 C      0.6770728326     -1.9280560624     -0.0056285462
 C     -0.6396981563     -1.9465510644      0.0049446868
 C      2.7332562639     -0.7736211034      0.7368550689
 C     -2.7705538605     -0.7601244610     -0.7639943917
 C      1.3921960136      0.3356397544     -0.8725948956
 C     -1.3676945702      0.3321620670      0.8626645314
 C      3.6278464512      0.2725067803      0.7195867030
 C     -3.6533058435      0.2472298397     -0.7330515515
 C      2.2980213652      1.3877976061     -0.9124528396
 C     -2.2848498521      1.3827391638      0.9060102174
 C      3.4441557000      1.3486264605     -0.0966150740
 C     -3.4438918850      1.3679587238      0.0973627776
 H      1.1619450286     -2.8977771596      0.0695696083
 H     -1.1259635779     -2.9196529493     -0.0445981712
 H      2.9484911854     -1.6367712397      1.3729556693
 H     -2.9573485708     -1.5673655917     -1.4727252938
 H      0.4757694119      0.4826117023     -1.4269580114
 H     -0.4773551797      0.3561806443      1.4744794065
 H      4.4931092293      0.1747168974      1.3361499439
 H     -4.5711525009      0.2329231654     -1.3270005873
 H      2.1259245905      2.2668630129     -1.5421061791
 H     -2.0773609666      2.2387062698      1.5785384764
 H      4.1519792893      2.1557021139     -0.1438767856
 H     -4.0887933741      2.2696546927      0.1516938070
26
# ORCA AIMD Position Step 8, t=4.00 fs, E_Pot=-530.56700554 Hartree, Unit is Angstrom
 C      1.6119739204     -0.7588144049     -0.0298992238
 C     -1.6053037795     -0.7188902665      0.0666996018
 C      0.6798792034     -1.9294063310     -0.0054332815
 C     -0.6372334194     -1.9496087095      0.0069883487
 C      2.7310903235     -0.7735647382      0.7361846411
 C     -2.7719293202     -0.7599486911     -0.7655611113
 C      1.3936850277      0.3343568389     -0.8739108906
 C     -1.3654117389      0.3306642052      0.8630215064
 C      3.6241257389      0.2726184419      0.7189360645
 C     -3.6549362379      0.2432861189     -0.7347963620
 C      2.2995676152      1.3861121635     -0.9152801279
 C     -2.2856537152      1.3815031578      0.9064244384
 C      3.4463717690      1.3462242863     -0.0974330385
 C     -3.4463122296      1.3679401976      0.0971407115
 H      1.1640125419     -2.8985831635      0.0752724245
 H     -1.1210707820     -2.9229810640     -0.0439904741
 H      2.9475196875     -1.6316200383      1.3679842030
 H     -2.9560864574     -1.5593022639     -1.4789344869
 H      0.4694736714      0.4921828529     -1.4195193090
 H     -0.4737359212      0.3541451623      1.4715497139
 H      4.4948270334      0.1677216556      1.3409717853
 H     -4.5695344129      0.2284448828     -1.3235456548
 H      2.1284858463      2.2639786076     -1.5392598746
 H     -2.0766187458      2.2295995101      1.5733305855
 H      4.1588514720      2.1547497861     -0.1466254000
 H     -4.0795189982      2.2676090541      0.1511783421
26
# ORCA AIMD Position Step 9, t=4.50 fs, E_Pot=-530.56511759 Hartree, Unit is Angstrom
 C      1.6126935816     -0.7601057957     -0.0300458120
 C     -1.6057941324     -0.7184610600      0.0695788952
 C      0.6826558407     -1.9308432340     -0.0051499954
 C     -0.6350062466     -1.9523329236      0.0090145576
 C      2.7290959520     -0.7737105903      0.7357140221
 C     -2.7729474991     -0.7600265266     -0.7670756315
 C      1.3951882848      0.3334367124     -0.8752381115
 C     -1.3631364783      0.3294658148      0.8636369830
 C      3.6206038808      0.2726554300      0.7183924762
 C     -3.6570035614      0.2398987531     -0.7364553343
 C      2.3012084158      1.3843705297     -0.9179958909
 C     -2.2867835717      1.3804495800      0.9066838327
 C      3.4483997839      1.3439403852     -0.0985086654
 C     -3.4482664055      1.3679910742      0.0972646614
 H      1.1665724438     -2.8990975826      0.0803577674
 H     -1.1164764733     -2.9257643260     -0.0429355534
 H      2.9461756364     -1.6259525203      1.3627571877
 H     -2.9539511131     -1.5517359616     -1.4839599392
 H      0.4634465816      0.5000042849     -1.4124407387
 H     -0.4701646675      0.3523072573      1.4689310477
 H      4.4974191191      0.1614936382      1.3462920552
 H     -4.5670755895      0.2235507257     -1.3204338961
 H      2.1308860149      2.2600691393     -1.5361802749
 H     -2.0765438977      2.2193640881      1.5668602038
 H      4.1661125738      2.1540253928     -0.1490375577
 H     -4.0702465696      2.2629583515      0.1498076853
26
# ORCA AIMD Position Step 10, t=5.00 fs, E_Pot=-530.56313522 Hartree, Unit is Angstrom
 C      1.6130735616     -0.7614440666     -0.0304382267
 C     -1.6061931572     -0.7189509552      0.0718916210
 C      0.6853821532     -1.9323671919     -0.0047730200
 C     -0.6330159776     -1.9546986222      0.0110203012
 C      2.7272680900     -0.7740201470      0.7354152299
 C     -2.7735869560     -0.7603361830     -0.7685080758
 C      1.3966724006      0.3328966114     -0.8765861037
 C     -1.3608929053      0.3285801483      0.8645105248
 C      3.6173754216      0.2725996163      0.7180213355
 C     -3.6594630659      0.2371027266     -0.7379762409
 C      2.3029572576      1.3825340572     -0.9205660419
 C     -2.2882600641      1.3794990294      0.9067196247
 C      3.4502620803      1.3418208753     -0.0998622628
 C     -3.4496763500      1.3680167599      0.0977350919
 H      1.1696717362     -2.8993715312      0.0847834374
 H     -1.1122646253     -2.9280833109     -0.0414013975
 H      2.9445954218     -1.6203937942      1.3577523824
 H     -2.9509733304     -1.5450646948     -1.4880128787
 H      0.4580374702      0.5059288723     -1.4056164866
 H     -0.4665997915      0.3507085546      1.4667050684
 H      4.5000754061      0.1562032489      1.3515236704
 H     -4.5643530425      0.2182519133     -1.3180869605
 H      2.1330220759      2.2555674673     -1.5332201157
 H     -2.0769745620      2.2089455522      1.5598141934
 H      4.1733985341      2.1531346649     -0.1510806800
 H     -4.0616920238      2.2565397001      0.1476157958
26
# ORCA AIMD Position Step 11, t=5.50 fs, E_Pot=-530.56125828 Hartree, Unit is Angstrom
 C      1.6131065349     -0.7628210020     -0.0310898498
 C     -1.6064904849     -0.7203784759      0.0736234773
 C      0.6880345970     -1.9339767621     -0.0042983093
 C     -0.6312563614     -1.9566874098      0.0130023890
 C      2.7255973538     -0.7744495245      0.7352547780
 C     -2.7738354153     -0.7608474819     -0.7698277993
 C      1.3981062796      0.3327429428     -0.8779588584
 C     -1.3587092956      0.3280084955      0.8656312728
 C      3.6145250688      0.2724354556      0.7178804199
 C     -3.6622543694      0.2349190856     -0.7393061772
 C      2.3048264652      1.3805658133     -0.9229587308
 C     -2.2900938649      1.3785621700      0.9064643036
 C      3.4519836700      1.3399050601     -0.1015078135
 C     -3.4504731420      1.3679114669      0.0985414616
 H      1.1733452414     -2.8994676550      0.0885182607
 H     -1.1085156816     -2.9300291793     -0.0393618559
 H      2.9429294977     -1.6156045354      1.3534728880
 H     -2.9472045764     -1.5396875296     -1.4913375801
 H      0.4535457023      0.5098526029     -1.3989828331
 H     -0.4630085897      0.3493940159      1.4649481571
 H      4.5020522751      0.1520077506      1.3561281650
 H     -4.5619786447      0.2125792501     -1.3169254796
 H      2.1347928693      2.2509439297     -1.5307489865
 H     -2.0777218943      2.1993851278      1.5529539323
 H      4.1803529324      2.1517088543     -0.1527337646
 H     -4.0546199871      2.2493327323      0.1446643874
26
# ORCA AIMD Position Step 12, t=6.00 fs, E_Pot=-530.55995501 Hartree, Unit is Angstrom
 C      1.6127931861     -0.7642248138     -0.0320105872
 C     -1.6066743278     -0.7227395454      0.0747745682
 C      0.6905875086     -1.9356691378     -0.0037234460
 C     -0.6297167185     -1.9582886483      0.0149574132
 C      2.7240721898     -0.7749563073      0.7351989205
 C     -2.7736900944     -0.7615259984     -0.7710065723
 C      1.3994639222      0.3329703369     -0.8793533848
 C     -1.3566167468      0.3277394473      0.8669784382
 C      3.6121205709      0.2721519575      0.7180141126
 C     -3.6653088218      0.2333542633     -0.7403967657
 C      2.3068263162      1.3784358735     -0.9251479289
 C     -2.2922828059      1.3775508860      0.9058605108
 C      3.4535890284      1.3382207054     -0.1034518256
 C     -3.4506048148      1.3675693917      0.0996628955
 H      1.1776115609     -2.8994528970      0.0915417738
 H     -1.1052998015     -2.9316904248     -0.0367961419
 H      2.9413203910     -1.6121975133      1.3503855357
 H     -2.9427088309     -1.5359623537     -1.4941743277
 H      0.4501872561      0.5117228582     -1.3925336262
 H     -0.4593768108      0.3484110694      1.4637245213
 H      4.5027523433      0.1490373282      1.3596736906
 H     -4.5605167479      0.2065834797     -1.3173165650
 H      2.1361108322      2.2466466366     -1.5291115483
 H     -2.0785990193      2.1916954884      1.5470189800
 H      4.1866659116      2.1494484908     -0.1539910015
 H     -4.0497618911      2.2423391155      0.1410343337
26
# ORCA AIMD Position Step 13, t=6.50 fs, E_Pot=-530.55975739 Hartree, Unit is Angstrom
 C      1.6121419042     -0.7656403144     -0.0332069259
 C     -1.6067315364     -0.7260080974      0.0753589690
 C      0.6930140427     -1.9374406579     -0.0030476238
 C     -0.6283831428     -1.9595003952      0.0168817254
 C      2.7226812696     -0.7755068773      0.7352192996
 C     -2.7731576119     -0.7623375665     -0.7720218710
 C      1.4007263259      0.3335611971     -0.8807590271
 C     -1.3546477088      0.3277489505      0.8685223266
 C      3.6102079821      0.2717441500      0.7184494386
 C     -3.6685576074      0.2323998597     -0.7412095093
 C      2.3089640936      1.3761266827     -0.9271170073
 C     -2.2948085272      1.3763913009      0.9048712820
 C      3.4550995087      1.3367805745     -0.1056925106
 C     -3.4500453628      1.3668982738      0.1010690166
 H      1.1824692299     -2.8993909379      0.0938435924
 H     -1.1026706497     -2.9331403769     -0.0336883479
 H      2.9398788989     -1.6106490951      1.3488556780
 H     -2.9375546219     -1.5341641064     -1.4967208044
 H      0.4480719985      0.5115435924     -1.3863285649
 H     -0.4557169045      0.3478084269      1.4630801003
 H      4.5017780973      0.1473845770      1.3618744076
 H     -4.5603986046      0.2003360134     -1.3195196556
 H      2.1369142075      2.2430394563     -1.5285850083
 H     -2.0794571940      2.1867142506      1.5426135359
 H      4.1921048499      2.1461564261     -0.1548642617
 H     -4.0477176818      2.2364334716      0.1368164475
26
# ORCA AIMD Position Step 14, t=7.00 fs, E_Pot=-530.56095893 Hartree, Unit is Angstrom
 C      1.6111682202     -0.7670492471     -0.0346820191
 C     -1.6066481782     -0.7301376239      0.0754035038
 C      0.6952872271     -1.9392872320     -0.0022716491
 C     -0.6272396017     -1.9603301583      0.0187714928
 C      2.7214158795     -0.7760826445      0.7352980036
 C     -2.7722532463     -0.7632525204     -0.7728597132
 C      1.4018824214      0.3344856798     -0.8821574506
 C     -1.3528345942      0.3280016150      0.8702259279
 C      3.6088088087      0.2712136517      0.7191939360
 C     -3.6719391877      0.2320331964     -0.7417202072
 C      2.3112434287      1.3736376656     -0.9288616873
 C     -2.2976332506      1.3750360004      0.9034895977
 C      3.4565313555      1.3355805296     -0.1082195920
 C     -3.4488035722      1.3658328113      0.1027205214
 H      1.1878933931     -2.8993350390      0.0954223876
 H     -1.1006607517     -2.9344275142     -0.0300275147
 H      2.9386632178     -1.6112223156      1.3490903944
 H     -2.9318086529     -1.5344500899     -1.4990984673
 H      0.4471918944      0.5093769871     -1.3804948618
 H     -0.4520729289      0.3476344235      1.4630385314
 H      4.4989632318      0.1470976865      1.3626135860
 H     -4.5618499490      0.1939299564     -1.3236403462
 H      2.1371778643      2.2403480058     -1.5293426218
 H     -2.0802217462      2.1849639323      1.5400987475
 H      4.1965356007      2.1417589629     -0.1553840546
 H     -4.0488564979      2.2322119827      0.1321045867
26
# ORCA AIMD Position Step 15, t=7.50 fs, E_Pot=-530.56337991 Hartree, Unit is Angstrom
 C      1.6098946102     -0.7684308618     -0.0364353660
 C     -1.6064094293     -0.7350624277      0.0749467471
 C      0.6973806275     -1.9412046757     -0.0013978452
 C     -0.6262690457     -1.9607950307      0.0206226021
 C      2.7202709200     -0.7766841259      0.7354304007
 C     -2.7710007202     -0.7642485398     -0.7735165684
 C      1.4029290238      0.3357028861     -0.8835235718
 C     -1.3512084513      0.3284510707      0.8720461509
 C      3.6079193526      0.2705694226      0.7202343505
 C     -3.6754036989      0.2322167949     -0.7419223082
 C      2.3136629964      1.3709876107     -0.9303918509
 C     -2.3006980574      1.3734725917      0.9017444889
 C      3.4578949575      1.3345987489     -0.1110137971
 C     -3.4469290949      1.3643450562      0.1045701000
 H      1.1938340325     -2.8993233119      0.0962855527
 H     -1.0992775317     -2.9355675717     -0.0258068639
 H      2.9376664818     -1.6139218059      1.3511053182
 H     -2.9255327773     -1.5368365835     -1.5013293270
 H      0.4474242090      0.5053405230     -1.3752215363
 H     -0.4485241144      0.3479357666      1.4635981838
 H      4.4943855634      0.1481773862      1.3619541917
 H     -4.5648505618      0.1874825308     -1.3296034092
 H      2.1369208310      2.2386256393     -1.5314311342
 H     -2.0809173381      2.1865592018      1.5395220396
 H      4.1999330471      2.1363144408     -0.1555992746
 H     -4.0532431985      2.2298836020      0.1269944762
26
# ORCA AIMD Position Step 16, t=8.00 fs, E_Pot=-530.56636425 Hartree, Unit is Angstrom
 C      1.6083498119     -0.7697626261     -0.0384627650
 C     -1.6060008502     -0.7407001990      0.0740368677
 C      0.6992694080     -1.9431887925     -0.0004301106
 C     -0.6254540335     -1.9609216815      0.0224308130
 C      2.7192456502     -0.7773308942      0.7356256741
 C     -2.7694305600     -0.7653123582     -0.7739997330
 C      1.4038698021      0.3371620073     -0.8848268483
 C     -1.3497981856      0.3290429562      0.8739359201
 C      3.6075107310      0.2698267848      0.7215373846
 C     -3.6789146498      0.2328999794     -0.7418270656
 C      2.3162165581      1.3682149351     -0.9317316371
 C     -2.3039228145      1.3717250245      0.8997016594
 C      3.4591943640      1.3337968523     -0.1140477744
 C     -3.4445143121      1.3624474922      0.1065623536
 H      1.2002147365     -2.8993747196      0.0964486612
 H     -1.0985032321     -2.9365429697     -0.0210242230
 H      2.9368158474     -1.6184896503      1.3547212596
 H     -2.9187839611     -1.5411944287     -1.5033309328
 H      0.4485440873      0.4996013379     -1.3707480425
 H     -0.4451818552      0.3487553779      1.4647326722
 H      4.4883643544      0.1505772202      1.3601375849
 H     -4.5691344182      0.1811352514     -1.3371515665
 H      2.1362086050      2.2377459687     -1.5347660533
 H     -2.0816724008      2.1911885252      1.5406064243
 H      4.2023825660      2.1300102800     -0.1555753277
 H     -4.0606103958      2.2292334214      0.1215875357
26
# ORCA AIMD Position Step 17, t=8.50 fs, E_Pot=-530.56903524 Hartree, Unit is Angstrom
 C      1.6065681160     -0.7710209985     -0.0407561164
 C     -1.6054097371     -0.7469544313      0.0727292479
 C      0.7009313445     -1.9452352392      0.0006260856
 C     -0.6247768522     -1.9607459271      0.0241918242
 C      2.7183433377     -0.7780578679      0.7359045002
 C     -2.7675783734     -0.7664398686     -0.7743260200
 C      1.4047132232      0.3388038060     -0.8860331342
 C     -1.3486303647      0.3297182949      0.8758462968
 C      3.6075306154      0.2690056396      0.7230516283
 C     -3.6824469740      0.2340211021     -0.7414612377
 C      2.3188933327      1.3653753485     -0.9329176522
 C     -2.3072081762      1.3698476560      0.8974582602
 C      3.4604275519      1.3331225231     -0.1172872866
 C     -3.4416907619      1.3601881644      0.1086335205
 H      1.2069322032     -2.8994870740      0.0959351651
 H     -1.0982980245     -2.9373080898     -0.0156825889
 H      2.9359835724     -1.6244448110      1.3595929018
 H     -2.9116180914     -1.5472638176     -1.5049295382
 H      0.4502508078      0.4923669010     -1.3673476679
 H     -0.4421837551      0.3501298008      1.4663932058
 H      4.4814397684      0.1542076351      1.3575693270
 H     -4.5742316687      0.1750521812     -1.3458712707
 H      2.1351499497      2.2374246882     -1.5391469205
 H     -2.0827005796      2.1981774437      1.5428045848
 H      4.2040705024      2.1231481908     -0.1553910477
 H     -4.0703892588      2.2296753683      0.1159984003
26
# ORCA AIMD Position Step 18, t=9.00 fs, E_Pot=-530.57067075 Hartree, Unit is Angstrom
 C      1.6045889270     -0.7721823736     -0.0433029668
 C     -1.6046258709     -0.7537172502      0.0710844640
 C      0.7023471163     -1.9473392569      0.0017637005
 C     -0.6242202267     -1.9603115317      0.0259015657
 C      2.7175696406     -0.7789089399      0.7362945699
 C     -2.7654833249     -0.7676342607     -0.7745194043
 C      1.4054696591      0.3405634713     -0.8871074662
 C     -1.3477287289      0.3304155092      0.8777277829
 C      3.6079072660      0.2681289557      0.7247110740
 C     -3.6859820782      0.2355087697     -0.7408633096
 C      2.3216782862      1.3625367100     -0.9339959450
 C     -2.3104414299      1.3679148207      0.8951325221
 C      3.4615880297      1.3325131271     -0.1206924763
 C     -3.4386197248      1.3576404061      0.1107126999
 H      1.2138608123     -2.8996412077      0.0947759157
 H     -1.0986018259     -2.9377941519     -0.0097914957
 H      2.9350075439     -1.6311585970      1.3652632243
 H     -2.9040958378     -1.5546817004     -1.5058848260
 H      0.4522078000      0.4838723549     -1.3653045569
 H     -0.4396826842      0.3520874368      1.4685147520
 H      4.4743291299      0.1589436187      1.3547876194
 H     -4.5795425452      0.1694150182     -1.3552403545
 H      2.1338879499      2.2372657361     -1.5442886035
 H     -2.0842640358      2.2066132905      1.5454013201
 H      4.2052626931      2.1161162703     -0.1551341317
 H     -4.0817904381      2.2303755081      0.1103612554
26
# ORCA AIMD Position Step 19, t=9.50 fs, E_Pot=-530.57099130 Hartree, Unit is Angstrom