27
# ORCA AIMD Position Step 0, t=0.00 fs, E_Pot=-673.59294486 Hartree, Unit is Angstrom
 N      2.0193538428      0.5681253700      2.2002863572
 C      2.0343618307      0.5055310154      0.7123409529
 C      3.5117000007      0.7628021237      0.2498772185
 O      4.4575584196      0.5143550363      1.2277119780
 C      1.0475391153      1.4732072301     -0.0002093583
 C     -0.4056230296      1.1812466198      0.3287867865
 C     -1.2034170566      1.8878046358      1.1496576805
 C     -1.1987636988      0.0683155660     -0.1779113417
 N     -2.4675309170      1.2906867022      1.2240273615
 C     -2.4744896187      0.1721158555      0.3885780617
 C     -0.9331373857     -0.9882314622     -1.0666033864
 C     -3.4974438015     -0.7446365464      0.1026786911
 C     -1.9291135024     -1.8859563664     -1.3496310495
 C     -3.2068324703     -1.7637350785     -0.7655442725
 O      3.8238014375      1.1258789370     -0.8676520077
 H      3.9076572421      0.3166752741      2.0281633579
 H      1.7885531458     -0.5220477026      0.4334813438
 H      1.8581393504      1.5476521564      2.4823036289
 H      1.2189781991      1.3896860327     -1.0723738598
 H      1.2898398704      2.4948106008      0.2877351337
 H     -0.9959122389      2.7870904123      1.7136592054
 H      0.0428049391     -1.0888657949     -1.5249615112
 H     -3.2747273485      1.6750691096      1.7130587012
 H     -1.7419595566     -2.7038515852     -2.0325216321
 H     -4.4763591178     -0.6444400299      0.5516237233
 H     -3.9696955205     -2.4912764266     -1.0130750549
 H      1.1947178535      0.0519883460      2.5405133344
27
# ORCA AIMD Position Step 1, t=0.50 fs, E_Pot=-673.59170423 Hartree, Unit is Angstrom
 N      2.0216919874      0.5672416943      2.2014420241
 C      2.0336312285      0.5105077776      0.7182003362
 C      3.5146729128      0.7619427552      0.2500227466
 O      4.4608154896      0.5105472662      1.2297750041
 C      1.0447120387      1.4747049722     -0.0017884275
 C     -0.4082120833      1.1828677520      0.3275398116
 C     -1.2022450455      1.8851616903      1.1484604232
 C     -1.1964427577      0.0657818373     -0.1783659231
 N     -2.4706530415      1.2909765340      1.2239549918
 C     -2.4735677903      0.1661131069      0.3872528123
 C     -0.9317013152     -0.9899791040     -1.0693059061
 C     -3.4968262406     -0.7474050618      0.1033839968
 C     -1.9255659225     -1.8882544224     -1.3491934276
 C     -3.2103958233     -1.7648547684     -0.7670191902
 O      3.8238681267      1.1246279841     -0.8656727366
 H      3.9132868674      0.3100400349      2.0273082071
 H      1.7907894387     -0.5255090075      0.4348211298
 H      1.8552440046      1.5540522030      2.4688627082
 H      1.2164041942      1.4059833307     -1.0606358728
 H      1.2944231433      2.4923094255      0.2845000006
 H     -1.0082001946      2.7781643472      1.7092404743
 H      0.0348480895     -1.0914030711     -1.5241029644
 H     -3.2723334122      1.6814450963      1.7114287966
 H     -1.7363767550     -2.6982146588     -2.0246666979
 H     -4.4752077993     -0.6510509951      0.5479451342
 H     -3.9676341521     -2.4733198385     -1.0091673471
 H      1.1909747955      0.0475231513      2.5397799378
27
# ORCA AIMD Position Step 2, t=1.00 fs, E_Pot=-673.58840562 Hartree, Unit is Angstrom
 N      2.0239781838      0.5663871701      2.2026331265
 C      2.0329080984      0.5153787007      0.7239584954
 C      3.5176172700      0.7610741536      0.2502426491
 O      4.4640855344      0.5067438734      1.2318014663
 C      1.0418889156      1.4762123713     -0.0032253439
 C     -0.4107560549      1.1844619324      0.3262617695
 C     -1.2011719159      1.8824706580      1.1472543987
 C     -1.1941503114      0.0632490989     -0.1788186558
 N     -2.4737138462      1.2912185851      1.2238351195
 C     -2.4726323753      0.1601783118      0.3859718101
 C     -0.9303382602     -0.9917109683     -1.0719551109
 C     -3.4962012910     -0.7501997486      0.1040620432
 C     -1.9220974614     -1.8904856621     -1.3486840846
 C     -3.2137832199     -1.7658592156     -0.7684676790
 O      3.8239478020      1.1233851473     -0.8637246209
 H      3.9186453288      0.3033338971      2.0268043609
 H      1.7931701300     -0.5281478468      0.4363692306
 H      1.8523703824      1.5599265192      2.4556721875
 H      1.2140833397      1.4218634429     -1.0504484480
 H      1.2988589580      2.4901109832      0.2814862811
 H     -1.0200885298      2.7701557492      1.7053361599
 H      0.0279247032     -1.0940294817     -1.5237240499
 H     -3.2703035817      1.6878801595      1.7099501734
 H     -1.7306475421     -2.6935046816     -2.0175793570
 H     -4.4742928094     -0.6575351162      0.5444415877
 H     -3.9669540528     -2.4568700505     -1.0058236946
 H      1.1877991825      0.0435478437      2.5388831262
27
# ORCA AIMD Position Step 3, t=1.50 fs, E_Pot=-673.58424337 Hartree, Unit is Angstrom
 N      2.0261651423      0.5655933336      2.2038904596
 C      2.0322034920      0.5200453724      0.7295134476
 C      3.5205027348      0.7601883089      0.2506073445
 O      4.4673775013      0.5029508492      1.2337582247
 C      1.0390767619      1.4777369075     -0.0043865256
 C     -0.4132084097      1.1860009192      0.3249225593
 C     -1.2002923098      1.8796938548      1.1460360289
 C     -1.1919158224      0.0607205581     -0.1792673463
 N     -2.4766553520      1.2913675687      1.2236245742
 C     -2.4716708206      0.1543808571      0.3847781665
 C     -0.9291144533     -0.9934103600     -1.0744993768
 C     -3.4955645041     -0.7530427880      0.1046875946
 C     -1.9187856191     -1.8925891295     -1.3480394629
 C     -3.2168253945     -1.7666421571     -0.7698637862
 O      3.8240529718      1.1221590582     -0.8618388080
 H      3.9234928909      0.2965022622      2.0269369825
 H      1.7958063008     -0.5292641411      0.4383030719
 H      1.8495439093      1.5647906854      2.4430119430
 H      1.2122568525      1.4369371031     -1.0432596242
 H      1.3029965518      2.4884933162      0.2789141408
 H     -1.0312109664      2.7639013407      1.7024146996
 H      0.0229869365     -1.0968258611     -1.5242644623
 H     -3.2689475551      1.6944105183      1.7087434164
 H     -1.7246425667     -2.6905747960     -2.0119656539
 H     -4.4738214066     -0.6637676840      0.5412741015
 H     -3.9689721122     -2.4433413620     -1.0035803658
 H      1.1856682380      0.0404837741      2.5376996365
27
# ORCA AIMD Position Step 4, t=2.00 fs, E_Pot=-673.58067025 Hartree, Unit is Angstrom
 N      2.0282161336      0.5648918257      2.2052378784
 C      2.0315321594      0.5244264213      0.7347708959
 C      3.5233008083      0.7592782335      0.2511820574
 O      4.4706962154      0.4991723404      1.2356198029
 C      1.0362872476      1.4792859096     -0.0051683074
 C     -0.4155248051      1.1874563300      0.3234927602
 C     -1.1996915407      1.8768123704      1.1448120352
 C     -1.1897671261      0.0582004542     -0.1797093573
 N     -2.4794300087      1.2913835069      1.2232874534
 C     -2.4706715516      0.1487851688      0.3837116566
 C     -0.9280754740     -0.9950622701     -1.0768967808
 C     -3.4949163003     -0.7559522869      0.1052406075
 C     -1.9156990684     -1.8945232548     -1.3472140390
 C     -3.2193869689     -1.7671285749     -0.7711905001
 O      3.8241952814      1.1209575328     -0.8600438184
 H      3.9276622760      0.2895151482      2.0278849346
 H      1.7987609378     -0.5283472945      0.4407499067
 H      1.8467919497      1.5682610739      2.4311824656
 H      1.2111131753      1.4508758705     -1.0401627760
 H      1.3066845292      2.4876828536      0.2769849289
 H     -1.0412691388      2.7600238714      1.7008143602
 H      0.0207534958     -1.0998511287     -1.5260550334
 H     -3.2684694861      1.7010274467      1.7078677594
 H     -1.7182768896     -2.6900661868     -2.0083530952
 H     -4.4739396494     -0.6696365417      0.5385711265
 H     -3.9746744964     -2.4338001435     -1.0028577813
 H      1.1849122887      0.0386385599      2.5361670942
27
# ORCA AIMD Position Step 5, t=2.50 fs, E_Pot=-673.57863564 Hartree, Unit is Angstrom
 N      2.0301079439      0.5643127812      2.2066905427
 C      2.0309128036      0.5284616770      0.7396476903
 C      3.5259855707      0.7583386284      0.2520240238
 O      4.4740408719      0.4954099004      1.2373709557
 C      1.0335401581      1.4808679802     -0.0055146341
 C     -0.4176646851      1.1888000620      0.3219447741
 C     -1.1994422876      1.8738342443      1.1436037406
 C     -1.1877298028      0.0556944683     -0.1801414230
 N     -2.4820038380      1.2912336694      1.2227971480
 C     -2.4696245722      0.1434492026      0.3828078613
 C     -0.9272357304     -0.9966547038     -1.0791203170
 C     -3.4942636377     -0.7589406332      0.1057081438
 C     -1.9128935939     -1.8962754934     -1.3461886674
 C     -3.2213891158     -1.7672930834     -0.7724462736
 O      3.8243850892      1.1197871019     -0.8583640065
 H      3.9310837670      0.2823780923      2.0296855885
 H      1.8020420344     -0.5251171260      0.4437743644
 H      1.8441387072      1.5700956856      2.4205008177
 H      1.2107513238      1.4634187372     -1.0416831531
 H      1.3097701400      2.4878331147      0.2758674803
 H     -1.0500494521      2.7588281511      1.7006794184
 H      0.0215863820     -1.1031276900     -1.5292588077
 H     -3.2689375503      1.7076592758      1.7073024986
 H     -1.7115398770     -2.6922956778     -2.0069977630
 H     -4.4747091498     -0.6750460321      0.5364172820
 H     -3.9844665325     -2.4287551957     -1.0038843343
 H      1.1856811284      0.0381796983      2.5342953188
27
# ORCA AIMD Position Step 6, t=3.00 fs, E_Pot=-673.57810483 Hartree, Unit is Angstrom
 N      2.0318323064      0.5638833387      2.2082541803
 C      2.0303678596      0.5321145532      0.7440744856
 C      3.5285343439      0.7573665051      0.2531799357
 O      4.4774044705      0.4916622145      1.2390075403
 C      1.0308654127      1.4824946613     -0.0054260756
 C     -0.4195928588      1.1900049276      0.3202541289
 C     -1.1996025553      1.8707978332      1.1424483675
 C     -1.1858265991      0.0532099677     -0.1805596160
 N     -2.4843574996      1.2908936050      1.2221371205
 C     -2.4685220946      0.1384232920      0.3820975300
 C     -0.9265732514     -0.9981796642     -1.0811607581
 C     -3.4936205752     -0.7620134341      0.1060853678
 C     -1.9104095252     -1.8978669448     -1.3449746167
 C     -3.2228216356     -1.7671680201     -0.7736482272
 O      3.8246310968      1.1186526038     -0.8568181736
 H      3.9337935386      0.2751369072      2.0322252908
 H      1.8056006023     -0.5195445694      0.4473714243
 H      1.8416010512      1.5702191370      2.4112924016
 H      1.2111599498      1.4743671301     -1.0476671414
 H      1.3120995216      2.4890104548      0.2756863679
 H     -1.0574266044      2.7602502668      1.7019297334
 H      0.0254256761     -1.1066324308     -1.5338390646
 H     -3.2702776338      1.7141647851      1.7069431841
 H     -1.7045132882     -2.6971980453     -2.0078374305
 H     -4.4760959238     -0.6799193402      0.5348479731
 H     -3.9980387364     -2.4280647964     -1.0066586308
 H      1.1879304522      0.0391229581      2.5321690160
27
# ORCA AIMD Position Step 7, t=3.50 fs, E_Pot=-673.57820679 Hartree, Unit is Angstrom
 N      2.0333958897      0.5636263993      2.2099252749
 C      2.0299228949      0.5353730387      0.7479975906
 C      3.5309282852      0.7563617134      0.2546837855
 O      4.4807743271      0.4879253410      1.2405355242
 C      1.0283027798      1.4841816217     -0.0049566571
 C     -0.4212810360      1.1910455392      0.3184008982
 C     -1.2002147527      1.8677690563      1.1413964737
 C     -1.1840769217      0.0507560465     -0.1809594749
 N     -2.4864852469      1.2903471231      1.2213003851
 C     -2.4673591183      0.1337492864      0.3816061250
 C     -0.9260316478     -0.9996336346     -1.0830263219
 C     -3.4930075378     -0.7651691922      0.1063754649
 C     -1.9082710945     -1.8993502768     -1.3436119707
 C     -3.2237391198     -1.7668375247     -0.7748305472
 O      3.8249400492      1.1175568469     -0.8554184003
 H      3.9359235014      0.2678747188      2.0352580117
 H      1.8093325258     -0.5118555359      0.4514641608
 H      1.8391858113      1.5687311362      2.4038795151
 H      1.2122205372      1.4835745344     -1.0573165726
 H      1.3135196931      2.4911889474      0.2765137504
 H     -1.0633552533      2.7638754521      1.7042736247
 H      0.0318033109     -1.1102963425     -1.5395645534
 H     -3.2722921984      1.7203400447      1.7066134838
 H     -1.6973712111     -2.7043423669     -2.0105063422
 H     -4.4779735326     -0.6841993912      0.5338504654
 H     -4.0144125784     -2.4310028915     -1.0109664427
 H      1.1914269096      0.0413343934      2.5299426933
27
# ORCA AIMD Position Step 8, t=4.00 fs, E_Pot=-673.57786901 Hartree, Unit is Angstrom
 N      2.0348188246      0.5635596645      2.2116921243
 C      2.0296056899      0.5382494389      0.7513800065
 C      3.5331529070      0.7553273103      0.2565552894
 O      4.4841335332      0.4841933786      1.2419684130
 C      1.0258993005      1.4859486856     -0.0041998966
 C     -0.4227092616      1.1918994148      0.3163711700
 C     -1.2013055489      1.8648331506      1.1405059409
 C     -1.1824964082      0.0483433529     -0.1813362860
 N     -2.4883921646      1.2895853181      1.2202879113
 C     -2.4661339042      0.1294599298      0.3813535246
 C     -0.9255288105     -1.0010176053     -1.0847393322
 C     -3.4924493579     -0.7683997432      0.1065885146
 C     -1.9064876211     -1.9008014967     -1.3421629147
 C     -3.2242431977     -1.7664204044     -0.7760388297
 O      3.8253165297      1.1165003572     -0.8541691724
 H      3.9376754723      0.2607016945      2.0384477651
 H      1.8130838917     -0.5025186590      0.4559063211
 H      1.8368890284      1.5658981217      2.3985677279
 H      1.2137334733      1.4909380230     -1.0693528329
 H      1.3138828254      2.4942555355      0.2783660911
 H     -1.0678544758      2.7690180285      1.7072598458
 H      0.0399311612     -1.1140129511     -1.5460501155
 H     -3.2746994962      1.7259373504      1.7060898595
 H     -1.6903615653     -2.7130163756     -2.0144062764
 H     -4.4801399688     -0.6878485630      0.5333708986
 H     -4.0321439773     -2.4364515493     -1.0164429999
 H      1.1957718021      0.0445457570      2.5278281062
27
# ORCA AIMD Position Step 9, t=4.50 fs, E_Pot=-673.57646361 Hartree, Unit is Angstrom
 N      2.0361316654      0.5636949466      2.2135367595
 C      2.0294449740      0.5407786192      0.7542015998
 C      3.5351984883      0.7542697244      0.2587989704
 O      4.4874630490      0.4804594005      1.2433237443
 C      1.0237052376      1.4878184925     -0.0032693930
 C     -0.4238671582      1.1925482015      0.3141584330
 C     -1.2028860982      1.8620831785      1.1398340053
 C     -1.1810965447      0.0459837010     -0.1816854970
 N     -2.4900904094      1.2886049189      1.2191063536
 C     -2.4648483437      0.1255784116      0.3813538670
 C     -0.9249698477     -1.0023367589     -1.0863309501
 C     -3.4919723778     -0.7716912834      0.1067395908
 C     -1.9050559480     -1.9023080530     -1.3407019695
 C     -3.2244585905     -1.7660489243     -0.7773227540
 O      3.8257628694      1.1154812365     -0.8530668757
 H      3.9392857567      0.2537397748      2.0414252124
 H      1.8166600393     -0.4922144494      0.4604906685
 H      1.8346976057      1.5621276128      2.3956310195
 H      1.2154571012      1.4963952878     -1.0822485814
 H      1.3130528265      2.4980251001      0.2812062787
 H     -1.0709903971      2.7748387702      1.7103528127
 H      0.0488356420     -1.1176529032     -1.5528198444
 H     -3.2771843715      1.7306922307      1.7051336111
 H     -1.6837750291     -2.7223512285     -2.0188107506
 H     -4.4823451307     -0.6908474998      0.5333257351
 H     -4.0495953457     -2.4431371271     -1.0226532974
 H      1.2004446458      0.0483839366      2.5260741455
27
# ORCA AIMD Position Step 10, t=5.00 fs, E_Pot=-673.57409630 Hartree, Unit is Angstrom
 N      2.0373707272      0.5640377795      2.2154376752
 C      2.0294688094      0.5430142626      0.7564582721
 C      3.5370603295      0.7531986832      0.2614040096
 O      4.4907439901      0.4767164725      1.2446193557
 C      1.0217696553      1.4898141206     -0.0022799032
 C     -0.4247548424      1.1929788336      0.3117647092
 C     -1.2049524197      1.8596080493      1.1394291715
 C     -1.1798843628      0.0436895250     -0.1820032058
 N     -2.4915952251      1.2874063231      1.2177655717
 C     -2.4635082009      0.1221180843      0.3816155175
 C     -0.9242609881     -1.0035999713     -1.0878353686
 C     -3.4916010717     -0.7750257316      0.1068464607
 C     -1.9039633519     -1.9039563325     -1.3393057231
 C     -3.2245109867     -1.7658501282     -0.7787293854
 O      3.8262791801      1.1144951549     -0.8520997233
 H      3.9409873786      0.2471055658      2.0438470948
 H      1.8198390122     -0.4817812703      0.4649645041
 H      1.8325936771      1.5579250810      2.3952966387
 H      1.2171475789      1.4999260148     -1.0944568270
 H      1.3109136181      2.5022634196      0.2849505505
 H     -1.0728606629      2.7804696419      1.7130117391
 H      0.0575027977     -1.1210807339     -1.5593758663
 H     -3.2794509014      1.7343532342      1.7035241052
 H     -1.6779100048     -2.7314527345     -2.0229741661
 H     -4.4843239916     -0.6931933023      0.5336155453
 H     -4.0651839447     -2.4498345979     -1.0291641947
 H      1.2048669541      0.0524145141      2.5249394729
27
# ORCA AIMD Position Step 11, t=5.50 fs, E_Pot=-673.57148808 Hartree, Unit is Angstrom
 N      2.0385720259      0.5645874311      2.2173731977
 C      2.0297026313      0.5450227242      0.7581600296
 C      3.5387387931      0.7521269149      0.2643448941
 O      4.4939597074      0.4729585980      1.2458700289
 C      1.0201364944      1.4919562789     -0.0013326988
 C     -0.4253833540      1.1931844242      0.3092012836
 C     -1.2074859552      1.8574822568      1.1393244858
 C     -1.1788622805      0.0414732682     -0.1822866469
 N     -2.4929213484      1.2859916735      1.2162763574
 C     -2.4621231778      0.1190823923      0.3821411346
 C     -0.9233218031     -1.0048192844     -1.0892846028
 C     -3.4913547115     -0.7783822164      0.1069272131
 C     -1.9031903002     -1.9058209060     -1.3380440089
 C     -3.2245110595     -1.7659328138     -0.7802982580
 O      3.8268635135      1.1135354902     -0.8512481494
 H      3.9429761732      0.2408943461      2.0454486267
 H      1.8223899388     -0.4721344978      0.4690533565
 H      1.8305617126      1.5538348458      2.3977305537
 H      1.2185910887      1.5015543093     -1.1045918043
 H      1.3073780188      2.5067147103      0.2894787013
 H     -1.0735820847      2.7851226206      1.7147587315
 H      0.0650052744     -1.1241703092     -1.5652591256
 H     -3.2812687505      1.7367095106      1.7010879406
 H     -1.6730409362     -2.7395133840     -2.0262247228
 H     -4.4858302655     -0.6948972931      0.5341390273
 H     -4.0775575279     -2.4555053434     -1.0355953337
 H      1.2084826820      0.0561969854      2.5246596634
27
# ORCA AIMD Position Step 12, t=6.00 fs, E_Pot=-673.56960964 Hartree, Unit is Angstrom
 N      2.0397645276      0.5653374819      2.2193251199
 C      2.0301670143      0.5468744860      0.7593280337
 C      3.5402391116      0.7510696585      0.2675827878
 O      4.4970973793      0.4691814841      1.2470849212
 C      1.0188415404      1.4942606268     -0.0005061856
 C     -0.4257744798      1.1931647433      0.3064889088
 C     -1.2104544255      1.8557584497      1.1395329319
 C     -1.1780281196      0.0393467845     -0.1825346175
 N     -2.4940802147      1.2843632661      1.2146486586
 C     -2.4607067856      0.1164650342      0.3829278071
 C     -0.9220943746     -1.0060093820     -1.0907044381
 C     -3.4912445266     -0.7817385198      0.1069980903
 C     -1.9027127701     -1.9079566267     -1.3369734196
 C     -3.2245449939     -1.7663800624     -0.7820583004
 O      3.8275121288      1.1125936110     -0.8504856501
 H      3.9453849028      0.2351674806      2.0460822319
 H      1.8240959554     -0.4641602446      0.4724922354
 H      1.8285978808      1.5503697124      2.4030242045
 H      1.2196255682      1.5013495666     -1.1115487489
 H      1.3023960218      2.5111299729      0.2946456826
 H     -1.0732811349      2.7881713086      1.7152287308
 H      0.0705971957     -1.1268169961     -1.5700953777
 H     -3.2825079490      1.7376125794      1.6977206421
 H     -1.6693938239     -2.7458939003     -2.0280319161
 H     -4.4866661639     -0.6959825442      0.5348055209
 H     -4.0856941883     -2.4593712966     -1.0416487701
 H      1.2108454628      0.0593450497      2.5254128415
27
# ORCA AIMD Position Step 13, t=6.50 fs, E_Pot=-673.56926148 Hartree, Unit is Angstrom
 N      2.0409639326      0.5662771105      2.2212820428
 C      2.0308753555      0.5486340391      0.7599909981
 C      3.5415709879      0.7500440253      0.2710674937
 O      4.5001489563      0.4653830714      1.2482659962
 C      1.0179103098      1.4967355936      0.0001491155
 C     -0.4259599192      1.1929262209      0.3036574248
 C     -1.2138131017      1.8544629911      1.1400450664
 C     -1.1773752999      0.0373207980     -0.1827478098
 N     -2.4950781837      1.2825224803      1.2128904685
 C     -2.4592760181      0.1142503465      0.3839672329
 C     -0.9205491873     -1.0071870195     -1.0921116082
 C     -3.4912716786     -0.7850723668      0.1070717184
 C     -1.9025041238     -1.9103936438     -1.3361331615
 C     -3.2246697776     -1.7672456794     -0.7840261173
 O      3.8282198376      1.1116592873     -0.8497800030
 H      3.9482675715      0.2299446594      2.0457392452
 H      1.8247796820     -0.4585941291      0.4750611074
 H      1.8267203965      1.5479382436      2.4111831964
 H      1.2201532196      1.4994248120     -1.1145719863
 H      1.2959614330      2.5152927666      0.3002928827
 H     -1.0720863032      2.7892042524      1.7142008083
 H      0.0737759049     -1.1289461414     -1.5736257257
 H     -3.2831594264      1.7369902027      1.6933992110
 H     -1.6671295030     -2.7501748602     -2.0280491991
 H     -4.4867051486     -0.6964813580      0.5355447965
 H     -4.0889477800     -2.4609458512     -1.0471236693
 H      1.2116964494      0.0615813229      2.5272899030
27
# ORCA AIMD Position Step 14, t=7.00 fs, E_Pot=-673.57074571 Hartree, Unit is Angstrom
 N      2.0421684621      0.5673930538      2.2232417791
 C      2.0318317991      0.5503499795      0.7601815998
 C      3.5427480368      0.7490682610      0.2747398351
 O      4.5031114046      0.4615637850      1.2494075456
 C      1.0173567019      1.4993808800      0.0006127642
 C     -0.4259798194      1.1924814916      0.3007448058
 C     -1.2175065523      1.8535941363      1.1408286430
 C     -1.1768931961      0.0354044426     -0.1829290234
 N     -2.4959158762      1.2804693487      1.2110074510
 C     -2.4578508307      0.1124138732      0.3852459121
 C     -0.9186881618     -1.0083703605     -1.0935120258
 C     -3.4914262352     -0.7883625144      0.1071558417
 C     -1.9025366495     -1.9131348517     -1.3355428177
 C     -3.2249111522     -1.7685527739     -0.7862050554
 O      3.8289803929      1.1107211937     -0.8490947668
 H      3.9515947739      0.2252016470      2.0445533917
 H      1.8243274277     -0.4559061319      0.4766181957
 H      1.8249787282      1.5467821693      2.4221187490
 H      1.2201466281      1.4959326351     -1.1132885978
 H      1.2881161816      2.5190399512      0.3062579183
 H     -1.0701213931      2.7880540456      1.7116136681
 H      0.0743163456     -1.1305183090     -1.5757242940
 H     -3.2833403031      1.7348513830      1.6881849890
 H     -1.6663334479     -2.7521845622     -2.0261369927
 H     -4.4859059123     -0.6964328880      0.5363134228
 H     -4.0870641509     -2.4600429163     -1.0519232329
 H      1.2110142234      0.0627744067      2.5302760635
27
# ORCA AIMD Position Step 15, t=7.50 fs, E_Pot=-673.57372215 Hartree, Unit is Angstrom
 N      2.0433578161      0.5686719075      2.2252122881
 C      2.0330298132      0.5520476770      0.7599337149
 C      3.5437871118      0.7481609560      0.2785342667
 O      4.5059862587      0.4577264626      1.2504968377
 C      1.0171822348      1.5021867158      0.0008950692
 C     -0.4258807799      1.1918485195      0.2977956942
 C     -1.2214708288      1.8531223646      1.1418298725
 C     -1.1765676359      0.0336049242     -0.1830832324
 N     -2.4965886616      1.2782028151      1.2090033157
 C     -2.4564534182      0.1109230664      0.3867453263
 C     -0.9165453631     -1.0095782116     -1.0948998645
 C     -3.4916872238     -0.7915896148      0.1072526188
 C     -1.9027828349     -1.9161552374     -1.3352015710
 C     -3.2252627262     -1.7702932557     -0.7885846262
 O      3.8297868914      1.1097674661     -0.8483909452
 H      3.9552602556      0.2208737248      2.0427859828
 H      1.8227071710     -0.4562187288      0.4771230815
 H      1.8234590902      1.5469372548      2.4356431130
 H      1.2196509988      1.4910590975     -1.1077224449
 H      1.2789519984      2.5222759203      0.3123823597
 H     -1.0674993438      2.7848067534      1.7075685033
 H      0.0722845157     -1.1315319041     -1.5764060124
 H     -3.2832836808      1.7312821901      1.6822168840
 H     -1.6670106312     -2.7520094852     -2.0223712891
 H     -4.4843168091     -0.6958811147      0.5370973566
 H     -4.0801864444     -2.4567787884     -1.0560590649
 H      1.2090230324      0.0629494237      2.5342486569
27
# ORCA AIMD Position Step 16, t=8.00 fs, E_Pot=-673.57729202 Hartree, Unit is Angstrom
 N      2.0444956607      0.5701021878      2.2272108964
 C      2.0344518111      0.5537265230      0.7592811122
 C      3.5447075750      0.7473402281      0.2823816144
 O      4.5087785000      0.4538759388      1.2515158510
 C      1.0173757726      1.5051339010      0.0010368898
 C     -0.4257134760      1.1910494049      0.2948595167
 C     -1.2256359703      1.8529925697      1.1429760646
 C     -1.1763815029      0.0319272915     -0.1832175052
 N     -2.4970883017      1.2757216603      1.2068808946
 C     -2.4551073359      0.1097380688      0.3884421115
 C     -0.9141856648     -1.0108291535     -1.0962574013
 C     -3.4920237574     -0.7947368117      0.1073585365
 C     -1.9032163843     -1.9194028723     -1.3350886479
 C     -3.2256856438     -1.7724277766     -0.7911401478
 O      3.8306321690      1.1087862722     -0.8476287038
 H      3.9590985227      0.2168648143      2.0407935899
 H      1.8199757912     -0.4592813237      0.4766430823
 H      1.8222839945      1.5482273030      2.4514706208
 H      1.2187837829      1.4850157956     -1.0982960082
 H      1.2686093575      2.5249796969      0.3185172729
 H     -1.0643167506      2.7797936020      1.7023207123
 H      0.0680333332     -1.1320235035     -1.5758260169
 H     -3.2833129928      1.7264324398      1.6756952770
 H     -1.6690847637     -2.7499904005     -2.0170403591
 H     -4.4820705134     -0.6948733950      0.5379106072
 H     -4.0688568445     -2.4515726459     -1.0596552002
 H      1.2061567413      0.0622702122      2.5389920761
27
# ORCA AIMD Position Step 17, t=8.50 fs, E_Pot=-673.58029466 Hartree, Unit is Angstrom
 N      2.0455350281      0.5716755500      2.2292619444
 C      2.0360699981      0.5553624777      0.7582577806
 C      3.5455305403      0.7466228956      0.2862118519
 O      4.5114948497      0.4500182943      1.2524439721
 C      1.0179137883      1.5081946505      0.0011084287
 C     -0.4255300707      1.1901090257      0.2919883258
 C     -1.2299286205      1.8531281079      1.1441795544
 C     -1.1763154359      0.0303742782     -0.1833407852
 N     -2.4974056927      1.2730260139      1.2046438177
 C     -2.4538365106      0.1088125559      0.3903082563
 C     -0.9117012877     -1.0121406416     -1.0975557227
 C     -3.4923971677     -0.7977900453      0.1074649648
 C     -1.9038128948     -1.9228016875     -1.3351650733
 C     -3.2261091894     -1.7748864383     -0.7938327669
 O      3.8315091758      1.1077663612     -0.8467690476
 H      3.9629124448      0.2130617852      2.0389803481
 H      1.8162734366     -0.4645089373      0.4753410305
 H      1.8216048711      1.5502934926      2.4692260020
 H      1.2177313616      1.4780300717     -1.0858182945
 H      1.2572736897      2.5272048416      0.3245267708
 H     -1.0606499855      2.7735633206      1.6962598203
 H      0.0621795506     -1.1320656182     -1.5742698609
 H     -3.2838018298      1.7204938304      1.6688574637
 H     -1.6724025692     -2.7467023987     -2.0106281133
 H     -4.4793692151     -0.6934597301      0.5387900794
 H     -4.0540100531     -2.4451420620     -1.0629505369
 H      1.2029882730      0.0609991096      2.5442263001
27
# ORCA AIMD Position Step 18, t=9.00 fs, E_Pot=-673.58173932 Hartree, Unit is Angstrom
 N      2.0464253268      0.5733868346      2.2313933073
 C      2.0378483228      0.5569149987      0.7568995385
 C      3.5462780960      0.7460236829      0.2899568255
 O      4.5141416708      0.4461598281      1.2532613781
 C      1.0187613282      1.5113342010      0.0012061006
 C     -0.4253815981      1.1890536269      0.2892345260
 C     -1.2342744833      1.8534369172      1.1453429226
 C     -1.1763486212      0.0289462255     -0.1834635285
 N     -2.4975344715      1.2701192490      1.2022985874
 C     -2.4526641829      0.1080946413      0.3923113606