24
# ORCA AIMD Position Step 0, t=0.00 fs, E_Pot=-618.29168252 Hartree, Unit is Angstrom
 N      2.0384820783      1.7202095837      1.4619211735
 C      2.2412253733      1.1700921090      0.0932977628
 C      3.4118441344      1.9816441904     -0.5662208480
 O      4.2440581460      2.6071943556      0.3436449019
 C      0.9816788206      1.1675639481     -0.8177869781
 C     -0.1254059979      0.2531791131     -0.2918725074
 C     -1.2311607450      0.7687297647      0.3679052781
 C     -0.0384466567     -1.1311574604     -0.4525402412
 C     -2.2281143984     -0.0610992250      0.8591686015
 C     -1.0200414860     -1.9705495230      0.0297816746
 C     -2.1291535876     -1.4377944582      0.6941386131
 O     -3.0893577584     -2.3348615412      1.1603852405
 O      3.6035662326      2.0489377293     -1.7647882717
 H      1.3752129050      2.5083153580      1.4021143270
 H      2.5957066838      0.1427246477      0.2109048139
 H      3.7967634854      2.4405046044      1.2121420467
 H      1.2952931225      0.8486832854     -1.8100973411
 H      0.6088972399      2.1860927979     -0.9050087510
 H     -1.3279724197      1.8394697398      0.4994045743
 H      0.8135996316     -1.5548775057     -0.9702774965
 H     -3.0850452016      0.3599955846      1.3685203377
 H     -0.9504091179     -3.0422389750     -0.0991035847
 H     -3.7874561525     -1.7759290816      1.5822987656
 H      1.5622357112      1.0091710023      2.0360679338
24
# ORCA AIMD Position Step 1, t=0.50 fs, E_Pot=-618.29087259 Hartree, Unit is Angstrom
 N      2.0411445806      1.7196747781      1.4629152373
 C      2.2408494753      1.1753597881      0.0989490286
 C      3.4151351271      1.9811334517     -0.5662269338
 O      4.2476304867      2.6037643717      0.3455373523
 C      0.9792271800      1.1693870107     -0.8195006069
 C     -0.1276219695      0.2551243457     -0.2932573258
 C     -1.2296528444      0.7664530865      0.3665696855
 C     -0.0358011877     -1.1333260017     -0.4531405021
 C     -2.2310992693     -0.0603826696      0.8589561892
 C     -1.0187812940     -1.9761527796      0.0283193555
 C     -2.1273842388     -1.4391846863      0.6913126435
 O     -3.0884903247     -2.3370076718      1.1608148249
 O      3.6069472743      2.0471951970     -1.7645883282
 H      1.3635622974      2.5068703002      1.3973878798
 H      2.5965370695      0.1406149981      0.2191275132
 H      3.8026849194      2.4342751119      1.2111451776
 H      1.2978547804      0.8455963406     -1.8089209790
 H      0.6063780052      2.1927696868     -0.9184669310
 H     -1.3301734912      1.8559460074      0.5108763111
 H      0.8184850603     -1.5570138156     -0.9736308126
 H     -3.0968641639      0.3514979198      1.3639951281
 H     -0.9579398039     -3.0444110288     -0.0984037028
 H     -3.7847384102     -1.7692760147      1.5805348041
 H      1.5681107845      1.0150923174      2.0436950168
24
# ORCA AIMD Position Step 2, t=1.00 fs, E_Pot=-618.28876207 Hartree, Unit is Angstrom
 N      2.0437387518      1.7192615342      1.4639240008
 C      2.2404850580      1.1805163995      0.1045256759
 C      3.4184121313      1.9806247094     -0.5662087569
 O      4.2512157396      2.6003422722      0.3473979308
 C      0.9767965836      1.1712501939     -0.8212008074
 C     -0.1297946477      0.2570150353     -0.2946599663
 C     -1.2282266920      0.7643831501      0.3653003791
 C     -0.0331721330     -1.1355001776     -0.4537444782
 C     -2.2340672632     -0.0597204330      0.8587262269
 C     -1.0175067552     -1.9816677667      0.0268567358
 C     -2.1256365361     -1.4405613127      0.6885034966
 O     -3.0876329798     -2.3391200999      1.1612491467
 O      3.6103247011      2.0454529731     -1.7643887291
 H      1.3527704553      2.5046750564      1.3928775753
 H      2.5971099852      0.1392253300      0.2271438602
 H      3.8083825528      2.4280036301      1.2105514190
 H      1.3004218724      0.8424861478     -1.8077094058
 H      0.6040379617      2.1988799620     -0.9317533586
 H     -1.3321030872      1.8702824275      0.5219234482
 H      0.8231244601     -1.5589849624     -0.9768168630
 H     -3.1084219614      0.3431034876      1.3594248639
 H     -0.9653046675     -3.0470395528     -0.0977961102
 H     -3.7818237229     -1.7629720675      1.5786365232
 H      1.5738984346      1.0206306768      2.0513752084
24
# ORCA AIMD Position Step 3, t=1.50 fs, E_Pot=-618.28605685 Hartree, Unit is Angstrom
 N      2.0462044603      1.7190752889      1.4649657210
 C      2.2401412436      1.1854660063      0.1099574486
 C      3.4216638197      1.9801185970     -0.5661436524
 O      4.2548281467      2.5969321944      0.3492010951
 C      0.9744068843      1.1731889116     -0.8228769232
 C     -0.1318841236      0.2588006801     -0.2960983993
 C     -1.2269580796      0.7626865977      0.3641587908
 C     -0.0305747132     -1.1376861880     -0.4543556084
 C     -2.2370037822     -0.0591635567      0.8584611538
 C     -1.0162027917     -1.9870175212      0.0253920386
 C     -2.1239300870     -1.4419129264      0.6857253843
 O     -3.0867923329     -2.3411690491      1.1616914400
 O      3.6136978494      2.0437099538     -1.7641892203
 H      1.3435701433      2.5011365487      1.3887913751
 H      2.5972107943      0.1391629792      0.2347685621
 H      3.8136722629      2.4216542841      1.2106966536
 H      1.3029999971      0.8393342424     -1.8064227338
 H      0.6020285311      2.2039314589     -0.9447059708
 H     -1.3335319663      1.8807811240      0.5321631112
 H      0.8273069107     -1.5606466739     -0.9796905379
 H     -3.1194737963      0.3349075759      1.3547633866
 H     -0.9723578815     -3.0505216307     -0.0973621337
 H     -3.7785552824     -1.7573310276      1.5764963852
 H      1.5795453514      1.0254605083      2.0591414177
24
# ORCA AIMD Position Step 4, t=2.00 fs, E_Pot=-618.28350949 Hartree, Unit is Angstrom
 N      2.0484917882      1.7191969399      1.4660626395
 C      2.2398237532      1.1901288919      0.1151748521
 C      3.4248791331      1.9796154256     -0.5660106006
 O      4.2584784346      2.5935369841      0.3509291895
 C      0.9720799428      1.1752282037     -0.8245188175
 C     -0.1338542039      0.2604345256     -0.2975883944
 C     -1.2259148750      0.7614829775      0.3631990693
 C     -0.0280265218     -1.1398875536     -0.4549756172
 C     -2.2398925125     -0.0587593361      0.8581429479
 C     -1.0148550700     -1.9921373947      0.0239229208
 C     -2.1222838574     -1.4432294355      0.6829921014
 O     -3.0859701860     -2.3431290850      1.1621419321
 O      3.6170660628      2.0419650237     -1.7639889754
 H      1.3365015323      2.4958949397      1.3853212169
 H      2.5966827887      0.1408655089      0.2418389076
 H      3.8184297901      2.4152104048      1.2117961874
 H      1.3055919168      0.8361282939     -1.8050184553
 H      0.6004596528      2.2075490369     -0.9571715614
 H     -1.3342837820      1.8862591601      0.5412719770
 H      0.8308748699     -1.5618855022     -0.9821397129
 H     -3.1297982609      0.3270059554      1.3499754008
 H     -0.9789692183     -3.0551332007     -0.0971660313
 H     -3.7748514289     -1.7526033719      1.5740539061
 H      1.5850475845      1.0293431862      2.0669777223
24
# ORCA AIMD Position Step 5, t=2.50 fs, E_Pot=-618.28165150 Hartree, Unit is Angstrom
 N      2.0505639949      1.7196779159      1.4672416940
 C      2.2395339765      1.1944457535      0.1201103274
 C      3.4280473751      1.9791150714     -0.5657909472
 O      4.2621726363      2.5901576442      0.3525750431
 C      0.9698402053      1.1773796858     -0.8261162144
 C     -0.1356743281      0.2618747458     -0.2991423343
 C     -1.2251545120      0.7608414011      0.3624653325
 C     -0.0255481824     -1.1421039435     -0.4556039143
 C     -2.2427145204     -0.0585504770      0.8577528018
 C     -1.0134505952     -1.9969794808      0.0224463164
 C     -2.1207158426     -1.4445025324      0.6803167517
 O     -3.0851622124     -2.3449807378      1.1625970800
 O      3.6204286690      2.0402170588     -1.7637863454
 H      1.3318630008      2.4888605713      1.3826328890
 H      2.5954381489      0.1445640295      0.2482212562
 H      3.8226096731      2.4086834939      1.2139053455
 H      1.3081980949      0.8328627205     -1.8034538922
 H      0.5993889731      2.2095081635     -0.9690143748
 H     -1.3342414854      1.8860731557      0.5490044453
 H      0.8337395001     -1.5626275306     -0.9840951220
 H     -3.1392112919      0.3194961430      1.3450430264
 H     -0.9850251415     -3.0609834052     -0.0972494510
 H     -3.7707260600     -1.7489522006      1.5713076519
 H      1.5904607083      1.0321466388      2.0748053096
24
# ORCA AIMD Position Step 6, t=3.00 fs, E_Pot=-618.28064480 Hartree, Unit is Angstrom
 N      2.0523996440      1.7205385265      1.4685341150
 C      2.2392685162      1.1983801730      0.1246995211
 C      3.4311583080      1.9786169187     -0.5654690580
 O      4.2659117067      2.5867930998      0.3541427284
 C      0.9677148421      1.1796398474     -0.8276580486
 C     -0.1373210955      0.2630853857     -0.3007682232
 C     -1.2247219758      0.7607797493      0.3619895224
 C     -0.0231635255     -1.1443304314     -0.4562373220
 C     -2.2454477492     -0.0585744250      0.8572710307
 C     -1.0119784015     -2.0015147852      0.0209585199
 C     -2.1192427139     -1.4457260929      0.6777114796
 O     -3.0843575620     -2.3467114005      1.1630493595
 O      3.6237849360      2.0384649490     -1.7635786321
 H      1.3296855770      2.4802232245      1.3808586739
 H      2.5934627148      0.1502651606      0.2538151253
 H      3.8262502549      2.4021172903      1.2169087856
 H      1.3108175486      0.8295387548     -1.8016894097
 H      0.5988165182      2.2097530782     -0.9801234801
 H     -1.3333503337      1.8801184807      0.5552053571
 H      0.8358883630     -1.5628429606     -0.9855355537
 H     -3.1475766049      0.3124774413      1.3399702966
 H     -0.9904277907     -3.0679933530     -0.0976289942
 H     -3.7662949058     -1.7464407116      1.5683186092
 H      1.5958981540      1.0338482295      2.0824811877
24
# ORCA AIMD Position Step 7, t=3.50 fs, E_Pot=-618.28026990 Hartree, Unit is Angstrom
 N      2.0539941014      1.7217691210      1.4699738745
 C      2.2390191084      1.2019196221      0.1288826108
 C      3.4342022604      1.9781198683     -0.5650328778
 O      4.2696920121      2.5834403233      0.3556463144
 C      0.9657334766      1.1819896461     -0.8291319053
 C     -0.1387793476      0.2640370973     -0.3024689311
 C     -1.2246481968      0.7612645233      0.3617896297
 C     -0.0208992606     -1.1465572599     -0.4568701555
 C     -2.2480669787     -0.0588628116      0.8566772295
 C     -1.0104302093     -2.0057327646      0.0194555072
 C     -2.1178794755     -1.4468964573      0.6751872196
 O     -3.0835394094     -2.3483154521      1.1634876209
 O      3.6271340265      2.0367076283     -1.7633618950
 H      1.3297279717      2.4704391873      1.3800929097
 H      2.5908156212      0.1577490945      0.2585552625
 H      3.8294637240      2.3955856474      1.2205411638
 H      1.3134489078      0.8261640525     -1.7996921279
 H      0.5986844298      2.2084002547     -0.9904183237
 H     -1.3316195274      1.8688251589      0.5598205385
 H      0.8373852748     -1.5625465416     -0.9864881743
 H     -3.1548117284      0.3060495504      1.3347851887
 H     -0.9950927452     -3.0759040379     -0.0982972446
 H     -3.7617674174     -1.7450324560      1.5652048188
 H      1.6015181632      1.0345217885      2.0898104357
24
# ORCA AIMD Position Step 8, t=4.00 fs, E_Pot=-618.28004022 Hartree, Unit is Angstrom
 N      2.0553601309      1.7233337550      1.4715951673
 C      2.2387728951      1.2050750661      0.1326056606
 C      3.4371702667      1.9776223877     -0.5644743663
 O      4.2735065501      2.5800947814      0.3571069405
 C      0.9639275191      1.1843953788     -0.8305236464
 C     -0.1400427096      0.2647076085     -0.3042417610
 C     -1.2249489752      0.7622108840      0.3618682783
 C     -0.0187840930     -1.1487700751     -0.4574946677
 C     -2.2505442630     -0.0594409094      0.8559506714
 C     -1.0088009999     -2.0096384536      0.0179334673
 C     -2.1166390898     -1.4480126297      0.6727534450
 O     -3.0826864110     -2.3497935982      1.1638979754
 O      3.6304749655      2.0349441080     -1.7631307949
 H      1.3314937839      2.4601965644      1.3803910079
 H      2.5876240649      0.1665832191      0.2624119164
 H      3.8324137943      2.3891848133      1.2244340054
 H      1.3160915206      0.8227519582     -1.7974397800
 H      0.5988815044      2.2057275761     -0.9998519540
 H     -1.3291229552      1.8531556911      0.5629063430
 H      0.8383624379     -1.5617939420     -0.9870240058
 H     -3.1608891333      0.3003097192      1.3295390628
 H     -0.9989466839     -3.0843114842     -0.0992268354
 H     -3.7574248525     -1.7446048108      1.5621278582
 H      1.6075018999      1.0343125123      2.0965695350
24
# ORCA AIMD Position Step 9, t=4.50 fs, E_Pot=-618.27941388 Hartree, Unit is Angstrom
 N      2.0565268976      1.7251763241      1.4734292930
 C      2.2385130750      1.2078789967      0.1358219693
 C      3.4400542282      1.9771225835     -0.5637897971
 O      4.2773466274      2.5767510984      0.3585489080
 C      0.9623291055      1.1868108628     -0.8318173243
 C     -0.1411135008      0.2650818921     -0.3060784174
 C     -1.2256246291      0.7634838867      0.3622118812
 C     -0.0168473252     -1.1509506512     -0.4581018345
 C     -2.2528498847     -0.0603271399      0.8550709476
 C     -1.0070894420     -2.0132478764      0.0163894547
 C     -2.1155320852     -1.4490764453      0.6704179158
 O     -3.0817749266     -2.3511514479      1.1642651225
 O      3.6338066393      2.0331735032     -1.7628785008
 H      1.3342765505      2.4503546112      1.3817727290
 H      2.5840727563      0.1761529392      0.2653891492
 H      3.8352861998      2.3830218443      1.2281780387
 H      1.3187464427      0.8193205372     -1.7949243481
 H      0.5992525103      2.2021491125     -1.0084113768
 H     -1.3259977772      1.8345933948      0.5646363455
 H      0.8390053358     -1.5606742517     -0.9872488139
 H     -3.1658323875      0.2953487418      1.3243035928
 H     -1.0019257035     -3.0927211784     -0.1003765855
 H     -3.7535863162     -1.7449748229      1.5592723753
 H      1.6140267850      1.0334048909      2.1025361901
24
# ORCA AIMD Position Step 10, t=5.00 fs, E_Pot=-618.27805454 Hartree, Unit is Angstrom
 N      2.0575365297      1.7272291979      1.4755013477
 C      2.2382200090      1.2103816143      0.1384933518
 C      3.4428470717      1.9766183012     -0.5629798830
 O      4.2812036544      2.5734037784      0.3599955839
 C      0.9609696379      1.1891809493     -0.8329954664
 C     -0.1420020213      0.2651520761     -0.3079653701
 C     -1.2266605895      0.7649033787      0.3627908458
 C     -0.0151170344     -1.1530780879     -0.4586824351
 C     -2.2549538214     -0.0615327490      0.8540188179
 C     -1.0052980637     -2.0165826799      0.0148220204
 C     -2.1145662348     -1.4500926429      0.6681864675
 O     -3.0807817780     -2.3523974913      1.1645739978
 O      3.6371278417      2.0313950431     -1.7625966831
 H      1.3372395174      2.4418518140      1.3842305810
 H      2.5803872254      0.1857126493      0.2675206904
 H      3.8382581086      2.3772013538      1.2313884544
 H      1.3214171442      0.8158915518     -1.7921550477
 H      0.5996124183      2.1981750884     -1.0161144422
 H     -1.3224378032      1.8150923375      0.5652994432
 H      0.8395313770     -1.5592992577     -0.9872899931
 H     -3.1697075965      0.2912460657      1.3191653871
 H     -1.0039746432     -3.1006112352     -0.1016985029
 H     -3.7505660887     -1.7459346716      1.5568206262
 H      1.6212397610      1.0319891295      2.1075203092
24
# ORCA AIMD Position Step 11, t=5.50 fs, E_Pot=-618.27605566 Hartree, Unit is Angstrom
 N      2.0584377788      1.7294240470      1.4778271127
 C      2.2378728696      1.2126449394      0.1405913106
 C      3.4455428779      1.9761072404     -0.5620497109
 O      4.2850707610      2.5700478569      0.3614657885
 C      0.9598779546      1.1914462826     -0.8340397807
 C     -0.1427252380      0.2649170505     -0.3098846182
 C     -1.2280292836      0.7662561791      0.3635616325
 C     -0.0136179431     -1.1551303018     -0.4592283421
 C     -2.2568276256     -0.0630616763      0.8527772114
 C     -1.0034331954     -2.0196648866      0.0132317366
 C     -2.1137463195     -1.4510688563      0.6660628453
 O     -3.0796872060     -2.3535407862      1.1648115313
 O      3.6404373592      2.0296080657     -1.7622755963
 H      1.3395320892      2.4355829931      1.3877435300
 H      2.5768104077      0.1944586537      0.2688629188
 H      3.8414713763      2.3718129640      1.2337623914
 H      1.3241098098      0.8124895389     -1.7891602179
 H      0.5997653618      2.1943577786     -1.0230029158
 H     -1.3186777257      1.7969460294      0.5652799635
 H      0.8401639798     -1.5577904847     -0.9872805101
 H     -3.1726108227      0.2880643019      1.3142187551
 H     -1.0050473826     -3.1074941624     -0.1031445290
 H     -3.7486276473     -1.7472917227      1.5549253332
 H      1.6292344263      1.0302306664      2.1113912243
24
# ORCA AIMD Position Step 12, t=6.00 fs, E_Pot=-618.27399802 Hartree, Unit is Angstrom
 N      2.0592773430      1.7317037104      1.4804105429
 C      2.2374518241      1.2147350038      0.1420980410
 C      3.4481369614      1.9755870692     -0.5610084786
 O      4.2889440297      2.5666794060      0.3629711012
 C      0.9590782429      1.1935489801     -0.8349322635
 C     -0.1433049677      0.2643817556     -0.3118147923
 C     -1.2296934661      0.7673190277      0.3644714578
 C     -0.0123691916     -1.1570855967     -0.4597338845
 C     -2.2584465568     -0.0649106646      0.8513322973
 C     -1.0015047433     -2.0225124213      0.0116215675
 C     -2.1130739831     -1.4520155603      0.6640485998
 O     -3.0784775521     -2.3545887710      1.1649682260
 O      3.6437340775      2.0278120042     -1.7619042572
 H      1.3404314851      2.4322583698      1.3922940641
 H      2.5735733443      0.2016214748      0.2694850895
 H      3.8450126907      2.3669212961      1.2351215670
 H      1.3268331371      0.8091411617     -1.7859877704
 H      0.5995272475      2.1912268431     -1.0291319380
 H     -1.3149655803      1.7825331845      0.5650099417
 H      0.8411047032     -1.5562653976     -0.9873415579
 H     -3.1746527349      0.2858436026      1.3095573748
 H     -1.0051077562     -3.1129696356     -0.1046722302
 H     -3.7479418499     -1.7489059756      1.5536853676
 H      1.6380348593      1.0282462388      2.1140974143
24
# ORCA AIMD Position Step 13, t=6.50 fs, E_Pot=-618.27272203 Hartree, Unit is Angstrom
 N      2.0600907594      1.7340328408      1.4832422938
 C      2.2369405474      1.2167129320      0.1430071977
 C      3.4506258871      1.9750555311     -0.5598690374
 O      4.2928232241      2.5632958537      0.3645142993
 C      0.9585879120      1.1954385852     -0.8356565927
 C     -0.1437657820      0.2635562310     -0.3137324465
 C     -1.2316106171      0.7678926898      0.3654657179
 C     -0.0113823166     -1.1589241010     -0.4601970957
 C     -2.2597917391     -0.0670696388      0.8496745237
 C     -0.9995258483     -2.0251357602      0.0099970672
 C     -2.1125477057     -1.4529459815      0.6621430682
 O     -3.0771471477     -2.3555456765      1.1650392488
 O      3.6470170767      2.0260063783     -1.7614707186
 H      1.3394803214      2.4322731741      1.3978838605
 H      2.5708631904      0.2065678239      0.2694578677
 H      3.8489020777      2.3625595954      1.2354364300
 H      1.3295975647      0.8058749968     -1.7827039470
 H      0.5987496630      2.1892213582     -1.0345569825
 H     -1.3115257984      1.7739344639      0.5648913168
 H      0.8425068811     -1.5548245211     -0.9875661204
 H     -3.1759423068      0.2845964794      1.3052658297
 H     -1.0041306406     -3.1167640169     -0.1062490206
 H     -3.7485574399     -1.7507168778      1.5531289951
 H      1.6475879787      1.0260891108      2.1156763380
24
# ORCA AIMD Position Step 14, t=7.00 fs, E_Pot=-618.27285199 Hartree, Unit is Angstrom
 N      2.0608956377      1.7364044533      1.4862996972
 C      2.2363286365      1.2186264247      0.1433243350
 C      3.4530074205      1.9745105386     -0.5586472724
 O      4.2967119523      2.5598961031      0.3660890037
 C      0.9584157400      1.1970773693     -0.8361996007
 C     -0.1441329561      0.2624545979     -0.3156133321
 C     -1.2337373093      0.7678408265      0.3664966745
 C     -0.0106597482     -1.1606288636     -0.4606206448
 C     -2.2608520482     -0.0695222927      0.8477994980
 C     -0.9975124820     -2.0275358181      0.0083664109
 C     -2.1121629010     -1.4538759739      0.6603434523
 O     -3.0756990090     -2.3564119160      1.1650248071
 O      3.6502856898      2.0241907996     -1.7609624311
 H      1.3365799143      2.4356248921      1.4045419177
 H      2.5687941377      0.2088949673      0.2688423066
 H      3.8530902510      2.3587275720      1.2348305371
 H      1.3324139264      0.8027218374     -1.7793902680
 H      0.5973415075      2.1886291310     -1.0393204635
 H     -1.3085230949      1.7724928163      0.5652035682
 H      0.8444545806     -1.5535413033     -0.9880058818
 H     -3.1765718132      0.2843036710      1.3014121050
 H     -1.0021028765     -3.1187551492     -0.1078547833
 H     -3.7503903365     -1.7527531260      1.5532082948
 H      1.6577654152      1.0237454615      2.1162531055
24
# ORCA AIMD Position Step 15, t=7.50 fs, E_Pot=-618.27436426 Hartree, Unit is Angstrom
 N      2.0616895518      1.7388401781      1.4895484041
 C      2.2356133775      1.2205034932      0.1430669182
 C      3.4552804311      1.9739502359     -0.5573613592
 O      4.3006172412      2.5564804486      0.3676805397
 C      0.9585606427      1.1984439924     -0.8365525744
 C     -0.1444307869      0.2610941769     -0.3174334582
 C     -1.2360320835      0.7671200958      0.3675303638
 C     -0.0101940786     -1.1621864385     -0.4610122752
 C     -2.2616254014     -0.0722467347      0.8457085665
 C     -0.9954830358     -2.0297030815      0.0067402793
 C     -2.1119121128     -1.4548238432      0.6586449839
 O     -3.0741441915     -2.3571846121      1.1649297281
 O      3.6535395125      2.0223649942     -1.7603666762
 H      1.3320069367      2.4419065409      1.4123209332
 H      2.5673879115      0.2084965023      0.2676819824
 H      3.8574648355      2.3553937749      1.2335650640
 H      1.3352916028      0.7997154431     -1.7761387262
 H      0.5952842563      2.1895449132     -1.0434408041
 H     -1.3060423664      1.7784736699      0.5660313777
 H      0.8469502878     -1.5524562092     -0.9886636621
 H     -3.1766054117      0.2849116373      1.2980420823
 H     -0.9990238427     -3.1189825635     -0.1094829267
 H     -3.7532341870     -1.7551230708      1.5538060502
 H      1.6683749167      1.0211430994      2.1160276295
24
# ORCA AIMD Position Step 16, t=8.00 fs, E_Pot=-618.27656024 Hartree, Unit is Angstrom
 N      2.0624530894      1.7413839516      1.4929455337
 C      2.2348003984      1.2223499873      0.1422638059
 C      3.4574447957      1.9733730635     -0.5560308670
 O      4.3045485115      2.5530502444      0.3692679399
 C      0.9590113665      1.1995347751     -0.8367121331
 C     -0.1446815091      0.2594949220     -0.3191698144
 C     -1.2384559100      0.7657876955      0.3685486871
 C     -0.0099682649     -1.1635869454     -0.4613846431
 C     -2.2621192052     -0.0752161154      0.8434089631
 C     -0.9934578861     -2.0316179598      0.0051315867
 C     -2.1117853028     -1.4558100252      0.6570411573
 O     -3.0724999573     -2.3578591335      1.1647623612
 O      3.6567783813      2.0205288255     -1.7596710446
 H      1.3263476979      2.4503790413      1.4212826125
 H      2.5665690514      0.2055824427      0.2660004263
 H      3.8618654108      2.3525024590      1.2320042907
 H      1.3382363200      0.7968935207     -1.7730455295
 H      0.5926373798      2.1918566028     -1.0469066219
 H     -1.3040943254      1.7909851333      0.5672475898
 H      0.8499134932     -1.5515757852     -0.9894927277
 H     -3.1760730732      0.2863321787      1.2951767585
 H     -0.9949055701     -3.1176434248     -0.1111399236
 H     -3.7567898965     -1.7579883610      1.5547534710
 H      1.6791804459      1.0181724835      2.1152510359
24
# ORCA AIMD Position Step 17, t=8.50 fs, E_Pot=-618.27848965 Hartree, Unit is Angstrom
 N      2.0631565380      1.7440910103      1.4964438260
 C      2.2339029331      1.2241514847      0.1409542265
 C      3.4595012830      1.9727777672     -0.5546758814
 O      4.3085161376      2.5496073321      0.3708270307
 C      0.9597471906      1.2003622803     -0.8366805649
 C     -0.1449047919      0.2576792051     -0.3208007358
 C     -1.2409705540      0.7639827245      0.3695459160
 C     -0.0099568256     -1.1648237193     -0.4617545577
 C     -2.2623498903     -0.0783992923      0.8409135131
 C     -0.9914589032     -2.0332523343      0.0035550254
 C     -2.1117702219     -1.4568566734      0.6555240005
 O     -3.0707871030     -2.3584312364      1.1645330348
 O      3.6600023518      2.0186823039     -1.7588639412
 H      1.3203744537      2.4600986904      1.4314769592
 H      2.5661767949      0.2006481174      0.2638043397
 H      3.8661063737      2.3499841965      1.2305645316
 H      1.3412476116      0.7942989079     -1.7702037529
 H      0.5895325177      2.1952628741     -1.0496772840
 H     -1.3026425811      1.8082006358      0.5685598947
 H      0.8531902244     -1.5508764397     -0.9904029225
 H     -3.1749712320      0.2884448394      1.2928127049
 H     -0.9897722820     -3.1150737471     -0.1128433137
 H     -3.7607081694     -1.7615270537      1.5558548884
 H      1.6899284334      1.0147182447      2.1141937898
24
# ORCA AIMD Position Step 18, t=9.00 fs, E_Pot=-618.27947996 Hartree, Unit is Angstrom
 N      2.0637676742      1.7470152395      1.4999960368
 C      2.2329399497      1.2258788374      0.1391862972
 C      3.4614514577      1.9721633430     -0.5533160975
 O      4.3125297029      2.5461532672      0.3723342643
 C      0.9607395386      1.2009516002     -0.8364655818
 C     -0.1451177316      0.2556718622     -0.3223059883
 C     -1.2435364632      0.7618908788      0.3705219761
 C     -0.0101277990     -1.1658925007     -0.4621417389
 C     -2.2623414470     -0.0817613911      0.8382398340
 C     -0.9895089420     -2.0345724048      0.0020264507
 C     -2.1118528509     -1.4579870636      0.6540843784
 O     -3.0690270040     -2.3588993884      1.1642523803
 O      3.6632116999      2.0168255797     -1.7579350674
 H      1.3149034693      2.4700621953      1.4429226497
 H      2.5659902841      0.1944003003      0.2610913400
 H      3.8700055879      2.3477692323      1.2296514610
 H      1.3443164330      0.7919804979     -1.7676958766
 H      0.5861576888      2.1993177409     -1.0516895827
 H     -1.3016365448      1.8277710293      0.5695949628
 H      0.8565723325     -1.5503124290     -0.9912728604
 H     -3.1732694296      0.2911015475      1.2909253865
 H     -0.9836595438     -3.1117156889     -0.1146182813
 H     -3.7646366329     -1.7658942370      1.5569146331
 H      1.7003764959      1.0106967421      2.1131096957
24
# ORCA AIMD Position Step 19, t=9.50 fs, E_Pot=-618.27940559 Hartree, Unit is Angstrom
 N      2.0642586259      1.7501976835      1.5035588070
 C      2.2319336384      1.2274957709      0.1370152236
 C      3.4632975958      1.9715289844     -0.5519698875
 O      4.3165961854      2.5426884588      0.3737707251
 C      0.9619542260      1.2013351937     -0.8360795848
 C     -0.1453350400      0.2535002536     -0.3236667750
 C     -1.2461114980      0.7597074100      0.3714758103
 C     -0.0104452571     -1.1667904151     -0.4625672523
 C     -2.2621232397     -0.0852644609      0.8354091481
 C     -0.9876312798     -2.0355427304      0.0005621072
 C     -2.1120178871     -1.4592248514      0.6527123016
 O     -3.0672388119     -2.3592668071      1.1639297835
 O      3.6664069599      2.0149589055     -1.7568758567
 H      1.3106684097      2.4793372818      1.4555937092
 H      2.5657606148      0.1876591944      0.2578598904
 H      3.8734148457      2.3458015355      1.2295947028
 H      1.3474232782      0.7899935928     -1.7655870466
 H      0.5827345830      2.2034926196     -1.0528688505
 H     -1.3010361434      1.8472532084      0.5699822238
 H      0.8598232253     -1.5498262641     -0.9919659696
 H     -3.1709217641      0.2941334583      1.2894748158
 H     -0.9766131269     -3.1080707599     -0.1164927854
 H     -3.7682642523     -1.7711874044      1.5577618845
 H      1.7103199856      1.0060928006      2.1122019138
24
# ORCA AIMD Position Step 20, t=10.00 fs, E_Pot=-618.27861705 Hartree, Unit is Angstrom
 N      2.0646109045      1.7536579789      1.5070953926
 C      2.2309067989      1.2289667772      0.1345014023
 C      3.4650426051      1.9708740161     -0.5506534552
 O      4.3207184098      2.5392114317      0.3751255875
 C      0.9633539480      1.2015472790     -0.8355385988
 C     -0.1455692272      0.2511942266     -0.3248657526
 C     -1.2486509472      0.7576087680      0.3724009126
 C     -0.0108720637     -1.1675148992     -0.4630518307
 C     -2.2617274022     -0.0888682934      0.8324448696
 C     -0.9858489854     -2.0361312113     -0.0008222694
 C     -2.1122492567     -1.4605931872      0.6513972504
 O     -3.0654371875     -2.3595429300      1.1635721609
 O      3.6695889813      2.0130825891     -1.7556798345