3
# ORCA AIMD Position Step 0, t=0.00 fs, E_Pot=-74.96590119 Hartree, Unit is Angstrom
 O     -0.0425822924     -0.0147631161     -0.0169774048
 H      0.6534321057     -0.5164034658      0.4758205453
 H      0.3853501912      0.8762665834     -0.0602431387
3
# ORCA AIMD Position Step 1, t=0.50 fs, E_Pot=-74.96587314 Hartree, Unit is Angstrom
 O     -0.0432459198     -0.0183302008     -0.0204433537
 H      0.6503605635     -0.5092567932      0.4828042846
 H      0.3890853608      0.8726869956     -0.0637609290
3
# ORCA AIMD Position Step 2, t=1.00 fs, E_Pot=-74.96580064 Hartree, Unit is Angstrom
 O     -0.0438928365     -0.0218329691     -0.0238811881
 H      0.6474322349     -0.5025325088      0.4898887762
 H      0.3925032991      0.8689992617     -0.0673493090
3
# ORCA AIMD Position Step 3, t=1.50 fs, E_Pot=-74.96570788 Hartree, Unit is Angstrom
 O     -0.0445107974     -0.0252461300     -0.0272918920
 H      0.6447030431     -0.4965253320      0.4971983281
 H      0.3953548531      0.8651027152     -0.0711111063
3
# ORCA AIMD Position Step 4, t=2.00 fs, E_Pot=-74.96561852 Hartree, Unit is Angstrom
 O     -0.0450858287     -0.0285540655     -0.0306726654
 H      0.6421458714     -0.4914412998      0.5047917199
 H      0.3974462573      0.8609604079     -0.0751447796
3
# ORCA AIMD Position Step 5, t=2.50 fs, E_Pot=-74.96554715 Hartree, Unit is Angstrom
 O     -0.0456026859     -0.0317522755     -0.0340163522
 H      0.6396440195     -0.4873859879      0.5126485121
 H      0.3986529449      0.8566102114     -0.0795398510
3
# ORCA AIMD Position Step 6, t=3.00 fs, E_Pot=-74.96549796 Hartree, Unit is Angstrom
 O     -0.0460459857     -0.0348470136     -0.0373118144
 H      0.6370040602     -0.4843676481      0.5206704970
 H      0.3989246673      0.8521622674     -0.0843723395
3
# ORCA AIMD Position Step 7, t=3.50 fs, E_Pot=-74.96546971 Hartree, Unit is Angstrom
 O     -0.0464018273     -0.0378533298     -0.0405452177
 H      0.6339852630     -0.4823128243      0.5286980029
 H      0.3982818357      0.8477836809     -0.0897005142
3
# ORCA AIMD Position Step 8, t=4.00 fs, E_Pot=-74.96546220 Hartree, Unit is Angstrom
 O     -0.0466595519     -0.0407919536     -0.0437019859
 H      0.6303390180     -0.4810899300      0.5365373871
 H      0.3968040503      0.8436727822     -0.0955612119
3
# ORCA AIMD Position Step 9, t=4.50 fs, E_Pot=-74.96547923 Hartree, Unit is Angstrom
 O     -0.0468132559     -0.0436855654     -0.0467690597
 H      0.6258502110     -0.4805357100      0.5439940628
 H      0.3946127722      0.8400265620     -0.1019668683
3
# ORCA AIMD Position Step 10, t=5.00 fs, E_Pot=-74.96552604 Hartree, Unit is Angstrom
 O     -0.0468627783     -0.0465550338     -0.0497370784
 H      0.6203732646     -0.4804802225      0.5509051198
 H      0.3918509823      0.8370060888     -0.1089033586
3
# ORCA AIMD Position Step 11, t=5.50 fs, E_Pot=-74.96560305 Hartree, Unit is Angstrom
 O     -0.0468140504     -0.0494161704     -0.0526021610
 H      0.6138576497     -0.4807672710      0.5571665441
 H      0.3886632569      0.8347056097     -0.1163287711
3
# ORCA AIMD Position Step 12, t=6.00 fs, E_Pot=-74.96570055 Hartree, Unit is Angstrom
 O     -0.0466788445     -0.0522774823     -0.0553670477
 H      0.6063599910     -0.4812684733      0.5627514385
 H      0.3851797004      0.8331311331     -0.1241733324
3
# ORCA AIMD Position Step 13, t=6.50 fs, E_Pot=-74.96579826 Hartree, Unit is Angstrom
 O     -0.0464740266     -0.0551392740     -0.0580414387
 H      0.5980417956     -0.4818900659      0.5677169508
 H      0.3815063934      0.8321931282     -0.1323408115
3
# ORCA AIMD Position Step 14, t=7.00 fs, E_Pot=-74.96587143 Hartree, Unit is Angstrom
 O     -0.0462204174     -0.0579942548     -0.0606414370
 H      0.5891532629     -0.4825721773      0.5721987128
 H      0.3777235064      0.8317154854     -0.1407117580
3
# ORCA AIMD Position Step 15, t=7.50 fs, E_Pot=-74.96590066 Hartree, Unit is Angstrom
 O     -0.0459413274     -0.0608295606     -0.0631880797
 H      0.5800049124     -0.4832809083      0.5763927343
 H      0.3738904079      0.8314595974     -0.1491487961
3
# ORCA AIMD Position Step 16, t=8.00 fs, E_Pot=-74.96588038 Hartree, Unit is Angstrom
 O     -0.0456608303     -0.0636298443     -0.0657050555
 H      0.5709302384     -0.4839944369      0.5805262446
 H      0.3700555601      0.8311593052     -0.1575038909
3
# ORCA AIMD Position Step 17, t=8.50 fs, E_Pot=-74.96582100 Hartree, Unit is Angstrom
 O     -0.0454018919     -0.0663808809     -0.0682158628
 H      0.5622443098     -0.4846855741      0.5848210721
 H      0.3662681788      0.8305604062     -0.1656271047
3
# ORCA AIMD Position Step 18, t=9.00 fs, E_Pot=-74.96574325 Hartree, Unit is Angstrom
 O     -0.0451845681     -0.0690730178     -0.0707408235
 H      0.5542047005     -0.4853044771      0.5894554246
 H      0.3625886525      0.8294578843     -0.1733760066
3
# ORCA AIMD Position Step 19, t=9.50 fs, E_Pot=-74.96566816 Hartree, Unit is Angstrom
 O     -0.0450245504     -0.0717038057     -0.0732944797
 H      0.5469815742     -0.4857659617      0.5945314705
 H      0.3590953457      0.8277248456     -0.1806247053
3
# ORCA AIMD Position Step 20, t=10.00 fs, E_Pot=-74.96560860 Hartree, Unit is Angstrom
 O     -0.0449323144     -0.0742792850     -0.0758838894
 H      0.5406424430     -0.4859454087      0.6000559012
 H      0.3558863267      0.8253288321     -0.1872714755
3
# ORCA AIMD Position Step 21, t=10.50 fs, E_Pot=-74.96556719 Hartree, Unit is Angstrom
 O     -0.0449129962     -0.0768136510     -0.0785081721
 H      0.5351540817     -0.4856853975      0.6059381888
 H      0.3530755008      0.8223332335     -0.1932441339
3
# ORCA AIMD Position Step 22, t=11.00 fs, E_Pot=-74.96554093 Hartree, Unit is Angstrom
 O     -0.0449669272     -0.0793273336     -0.0811593799
 H      0.5304001903     -0.4848124181      0.6120071230
 H      0.3507834700      0.8188836431     -0.1985026356
3
# ORCA AIMD Position Step 23, t=11.50 fs, E_Pot=-74.96552813 Hartree, Unit is Angstrom
 O     -0.0450905990     -0.0818438266     -0.0838244661
 H      0.5262100631     -0.4831603462      0.6180418952
 H      0.3491241964      0.8151811393     -0.2030387779
3
# ORCA AIMD Position Step 24, t=12.00 fs, E_Pot=-74.96553242 Hartree, Unit is Angstrom
 O     -0.0452777650     -0.0843858321     -0.0864879117
 H      0.5223918392     -0.4805958247      0.6238110505
 H      0.3481892552      0.8114465819     -0.2068733632
3
# ORCA AIMD Position Step 25, t=12.50 fs, E_Pot=-74.96556080 Hartree, Unit is Angstrom
 O     -0.0455204375     -0.0869714020     -0.0891344821
 H      0.5187640957     -0.4770406479      0.6291117747
 H      0.3480320967      0.8078818680     -0.2100516161
3
# ORCA AIMD Position Step 26, t=13.00 fs, E_Pot=-74.96561732 Hartree, Unit is Angstrom
 O     -0.0458096579     -0.0896107573     -0.0917516316
 H      0.5151810241     -0.4724873724      0.6338029481
 H      0.3486551103      0.8046351907     -0.2126379449
3
# ORCA AIMD Position Step 27, t=13.50 fs, E_Pot=-74.96569686 Hartree, Unit is Angstrom
 O     -0.0461360273     -0.0923043464     -0.0943311907
 H      0.5115483341     -0.4670059982      0.6378272912
 H      0.3500021789      0.8017770627     -0.2147111577
3
# ORCA AIMD Position Step 28, t=14.00 fs, E_Pot=-74.96578369 Hartree, Unit is Angstrom
 O     -0.0464900489     -0.0950424855     -0.0968701204
 H      0.5078287205     -0.4607411194      0.6412199427
 H      0.3519586681      0.7992918934     -0.2163609266
3
# ORCA AIMD Position Step 29, t=14.50 fs, E_Pot=-74.96585617 Hartree, Unit is Angstrom
 O     -0.0468623291     -0.0978066308     -0.0993702665
 H      0.5040370270     -0.4539001880      0.6441025810
 H      0.3543594727      0.7970865319     -0.2176857279
3
# ORCA AIMD Position Step 30, t=15.00 fs, E_Pot=-74.96589552 Hartree, Unit is Angstrom
 O     -0.0472436546     -0.1005720342     -0.1018371858
 H      0.5002263117     -0.4467345165      0.6466638199
 H      0.3570041669      0.7950134044     -0.2187918899
3
# ORCA AIMD Position Step 31, t=15.50 fs, E_Pot=-74.96589367 Hartree, Unit is Angstrom
 O     -0.0476249414     -0.1033112889     -0.1042782463
 H      0.4964670903     -0.4395154698      0.6491283284
 H      0.3596769373      0.7929028662     -0.2197929766
3
# ORCA AIMD Position Step 32, t=16.00 fs, E_Pot=-74.96585585 Hartree, Unit is Angstrom
 O     -0.0479970779     -0.1059981371     -0.1067003280
 H      0.4928231886     -0.4325089819      0.6517190440
 H      0.3621681999      0.7905979824     -0.2208086585
3
# ORCA AIMD Position Step 33, t=16.50 fs, E_Pot=-74.96579682 Hartree, Unit is Angstrom
 O     -0.0483507384     -0.1086109086     -0.1091075485
 H      0.4893286341     -0.4259518879      0.6546186404
 H      0.3642947281      0.7879852680     -0.2219624405
3
# ORCA AIMD Position Step 34, t=17.00 fs, E_Pot=-74.96573331 Hartree, Unit is Angstrom
 O     -0.0486763018     -0.1111350704     -0.1114994760
 H      0.4859703605     -0.4200333269      0.6579373662
 H      0.3659156251      0.7850164437     -0.2233779839
3
# ORCA AIMD Position Step 35, t=17.50 fs, E_Pot=-74.96567720 Hartree, Unit is Angstrom
 O     -0.0489640079     -0.1135645559     -0.1138702279
 H      0.4826807088     -0.4148835265      0.6616937389
 H      0.3669423032      0.7817182941     -0.2251741289
3
# ORCA AIMD Position Step 36, t=18.00 fs, E_Pot=-74.96563331 Hartree, Unit is Angstrom
 O     -0.0492044190     -0.1159017656     -0.1162086874
 H      0.4793416911     -0.4105707808      0.6658121136
 H      0.3673415558      0.7781896890     -0.2274589860
3
# ORCA AIMD Position Step 37, t=18.50 fs, E_Pot=-74.96560201 Hartree, Unit is Angstrom
 O     -0.0493891391     -0.1181563386     -0.1184998276
 H      0.4758002714     -0.4071058301      0.6701374317
 H      0.3671317049      0.7745865434     -0.2303236018
3
# ORCA AIMD Position Step 38, t=19.00 fs, E_Pot=-74.96558384 Hartree, Unit is Angstrom
 O     -0.0495116404     -0.1203429651     -0.1207268934
 H      0.4718914214     -0.4044516478      0.6744637232
 H      0.3663726722      0.7710969685     -0.2338357382
3
# ORCA AIMD Position Step 39, t=19.50 fs, E_Pot=-74.96558242 Hartree, Unit is Angstrom
 O     -0.0495680053     -0.1224786254     -0.1228740351
 H      0.4674642615     -0.4025361236      0.6785704009
 H      0.3651516465      0.7679102228     -0.2380342895
3
# ORCA AIMD Position Step 40, t=20.00 fs, E_Pot=-74.96560322 Hartree, Unit is Angstrom
 O     -0.0495574352     -0.1245797048     -0.1249289356
 H      0.4624064759     -0.4012652860      0.6822596031
 H      0.3635667439      0.7651842266     -0.2429248348
3
# ORCA AIMD Position Step 41, t=20.50 fs, E_Pot=-74.96564912 Hartree, Unit is Angstrom
 O     -0.0494824565     -0.1266594413     -0.1268850217
 H      0.4566631221     -0.4005352441      0.6853885725
 H      0.3617115016      0.7630171024     -0.2484768163
3
# ORCA AIMD Position Step 42, t=21.00 fs, E_Pot=-74.96571578 Hartree, Unit is Angstrom
 O     -0.0493488449     -0.1287261151     -0.1287429472
 H      0.4502473462     -0.4002416507      0.6878925916
 H      0.3596629735      0.7614280212     -0.2546228238
3
# ORCA AIMD Position Step 43, t=21.50 fs, E_Pot=-74.96579028 Hartree, Unit is Angstrom
 O     -0.0491653262     -0.1307822718     -0.1305111458
 H      0.4432418946     -0.4002860097      0.6897956710
 H      0.3574754916      0.7603512795     -0.2612604012
3
# ORCA AIMD Position Step 44, t=22.00 fs, E_Pot=-74.96585457 Hartree, Unit is Angstrom
 O     -0.0489431071     -0.1328250925     -0.1322053596
 H      0.4357914565     -0.4005785308      0.6912077049
 H      0.3551808949      0.7596450994     -0.2682566228
3
# ORCA AIMD Position Step 45, t=22.50 fs, E_Pot=-74.96589229 Hartree, Unit is Angstrom
 O     -0.0486952588     -0.1348478205     -0.1338471569
 H      0.4280868426     -0.4010375616      0.6923082294
 H      0.3527945550      0.7591136985     -0.2754553876
3
# ORCA AIMD Position Step 46, t=23.00 fs, E_Pot=-74.96589549 Hartree, Unit is Angstrom
 O     -0.0484359532     -0.1368419616     -0.1354615740
 H      0.4203429361     -0.4015860214      0.6933184998
 H      0.3503252978      0.7585385674     -0.2826869938
3
# ORCA AIMD Position Step 47, t=23.50 fs, E_Pot=-74.96586743 Hartree, Unit is Angstrom
 O     -0.0481795754     -0.1387998407     -0.1370741595
 H      0.4127733035     -0.4021457857      0.6944654747
 H      0.3477866767      0.7577133095     -0.2897791613
3
# ORCA AIMD Position Step 48, t=24.00 fs, E_Pot=-74.96582013 Hartree, Unit is Angstrom
 O     -0.0479397829     -0.1407170419     -0.1387078369
 H      0.4055651585     -0.4026315514      0.6959432527
 H      0.3452070543      0.7564761078     -0.2965683881
3
# ORCA AIMD Position Step 49, t=24.50 fs, E_Pot=-74.96576791 Hartree, Unit is Angstrom
 O     -0.0477286346     -0.1425942824     -0.1403800968
 H      0.3988586827     -0.4029461386      0.6978788809
 H      0.3426364400      0.7547346746     -0.3029104202
3
# ORCA AIMD Position Step 50, t=25.00 fs, E_Pot=-74.96572116 Hartree, Unit is Angstrom
 O     -0.0475559241     -0.1444383638     -0.1421010228
 H      0.3927341698     -0.4029791653      0.7003094460
 H      0.3401487593      0.7524799904     -0.3086887015
3
# ORCA AIMD Position Step 51, t=25.50 fs, E_Pot=-74.96568370 Hartree, Unit is Angstrom
 O     -0.0474288084     -0.1462619943     -0.1438725261
 H      0.3872089868     -0.4026104044      0.7031754736
 H      0.3378389966      0.7497868474     -0.3138199170
3
# ORCA AIMD Position Step 52, t=26.00 fs, E_Pot=-74.96565491 Hartree, Unit is Angstrom
 O     -0.0473517374     -0.1480824604     -0.1456889175
 H      0.3822442766     -0.4017179713      0.7063321788
 H      0.3358153869      0.7468010057     -0.3182561200
3
# ORCA AIMD Position Step 53, t=26.50 fs, E_Pot=-74.96563440 Hartree, Unit is Angstrom
 O     -0.0473266085     -0.1499193292     -0.1475386656
 H      0.3777593094     -0.4001901822      0.7095760956
 H      0.3341875214      0.7437146164     -0.3219834133
3
# ORCA AIMD Position Step 54, t=27.00 fs, E_Pot=-74.96562539 Hartree, Unit is Angstrom
 O     -0.0473530193     -0.1517915669     -0.1494069203
 H      0.3736504659     -0.3979385970      0.7126812642
 H      0.3330513894      0.7407335795     -0.3250180402
3
# ORCA AIMD Position Step 55, t=27.50 fs, E_Pot=-74.96563413 Hartree, Unit is Angstrom
 O     -0.0474285621     -0.1537144517     -0.1512784177
 H      0.3698096055     -0.3949110536      0.7154385138
 H      0.3324756867      0.7380416232     -0.3273995179
3
# ORCA AIMD Position Step 56, t=28.00 fs, E_Pot=-74.96566559 Hartree, Unit is Angstrom
 O     -0.0475490467     -0.1556969799     -0.1531400362
 H      0.3661408662     -0.3911005773      0.7176898485
 H      0.3324885665      0.7357681087     -0.3291843886
3
# ORCA AIMD Position Step 57, t=28.50 fs, E_Pot=-74.96571845 Hartree, Unit is Angstrom
 O     -0.0477087221     -0.1577401497     -0.1549827270
 H      0.3625721977     -0.3865499191      0.7193534671
 H      0.3330696415      0.7339654004     -0.3304405250
3
# ORCA AIMD Position Step 58, t=29.00 fs, E_Pot=-74.96578296 Hartree, Unit is Angstrom
 O     -0.0479005273     -0.1598364770     -0.1568025035
 H      0.3590608902     -0.3813507869      0.7204358765
 H      0.3341484500      0.7326005046     -0.3312434570
3
# ORCA AIMD Position Step 59, t=29.50 fs, E_Pot=-74.96584346 Hartree, Unit is Angstrom
 O     -0.0481164001     -0.1619708399     -0.1586003867
 H      0.3555928890     -0.3756379355      0.7210297905
 H      0.3356100486      0.7315626206     -0.3316750762
3
# ORCA AIMD Position Step 60, t=30.00 fs, E_Pot=-74.96588451 Hartree, Unit is Angstrom
 O     -0.0483476319     -0.1641224877     -0.1603813676
 H      0.3521764710     -0.3695789318      0.7212983230
 H      0.3373069819      0.7306848003     -0.3318242922
3
# ORCA AIMD Position Step 61, t=30.50 fs, E_Pot=-74.96589713 Hartree, Unit is Angstrom
 O     -0.0485852278     -0.1662678358     -0.1621525933
 H      0.3488315531     -0.3633609189      0.7214477484
 H      0.3390756657      0.7297750283     -0.3317886239
3
# ORCA AIMD Position Step 62, t=31.00 fs, E_Pot=-74.96588176 Hartree, Unit is Angstrom
 O     -0.0488202222     -0.1683835493     -0.1639211080
 H      0.3455765683     -0.3571760594      0.7216928516
 H      0.3407545151      0.7286505230     -0.3316754988
3
# ORCA AIMD Position Step 63, t=31.50 fs, E_Pot=-74.96584668 Hartree, Unit is Angstrom
 O     -0.0490439350     -0.1704494117     -0.1656915629
 H      0.3424153915     -0.3512074683      0.7222204380
 H      0.3422010589      0.7271690887     -0.3316022027
3
# ORCA AIMD Position Step 64, t=32.00 fs, E_Pot=-74.96580301 Hartree, Unit is Angstrom
 O     -0.0492481897     -0.1724505581     -0.1674643404
 H      0.3393270247     -0.3456172879      0.7231574254
 H      0.3433057028      0.7252525533     -0.3316938393
3
# ORCA AIMD Position Step 65, t=32.50 fs, E_Pot=-74.96575969 Hartree, Unit is Angstrom
 O     -0.0494255397     -0.1743787976     -0.1692344803
 H      0.3362604171     -0.3405380794      0.7245495483
 H      0.3440004905      0.7228990902     -0.3320791285
3
# ORCA AIMD Position Step 66, t=33.00 fs, E_Pot=-74.96572116 Hartree, Unit is Angstrom
 O     -0.0495695362     -0.1762329062     -0.1709916543
 H      0.3331358244     -0.3360680113      0.7263548099
 H      0.3442619948      0.7201830448     -0.3328842765
3
# ORCA AIMD Position Step 67, t=33.50 fs, E_Pot=-74.96568870 Hartree, Unit is Angstrom
 O     -0.0496750301     -0.1780179255     -0.1727212266
 H      0.3298526875     -0.3322696186      0.7284527719
 H      0.3441082239      0.7172425608     -0.3342254293
3
# ORCA AIMD Position Step 68, t=34.00 fs, E_Pot=-74.96566367 Hartree, Unit is Angstrom
 O     -0.0497384535     -0.1797436279     -0.1744062172
 H      0.3263025587     -0.3291713843      0.7306674528
 H      0.3435901774      0.7142568212     -0.3362003972
3
# ORCA AIMD Position Step 69, t=34.50 fs, E_Pot=-74.96564999 Hartree, Unit is Angstrom
 O     -0.0497580121     -0.1814224166     -0.1760298154
 H      0.3223845799     -0.3267711813      0.7327990261
 H      0.3427794162      0.7114161682     -0.3388804417
3
# ORCA AIMD Position Step 70, t=35.00 fs, E_Pot=-74.96565352 Hartree, Unit is Angstrom
 O     -0.0497337363     -0.1830670025     -0.1775780103
 H      0.3180206777     -0.3250406678      0.7346583030
 H      0.3417536891      0.7088896614     -0.3423029793
3
# ORCA AIMD Position Step 71, t=35.50 fs, E_Pot=-74.96567873 Hartree, Unit is Angstrom
 O     -0.0496673909     -0.1846882451     -0.1790419164
 H      0.3131679477     -0.3239299380      0.7360981780
 H      0.3405831165      0.7067954953     -0.3464660786
3
# ORCA AIMD Position Step 72, t=36.00 fs, E_Pot=-74.96572458 Hartree, Unit is Angstrom
 O     -0.0495622872     -0.1862935273     -0.1804194460
 H      0.3078264125     -0.3233719564      0.7370373507
 H      0.3393194673      0.7051796919     -0.3513255806
3
# ORCA AIMD Position Step 73, t=36.50 fs, E_Pot=-74.96578267 Hartree, Unit is Angstrom
 O     -0.0494230631     -0.1878859489     -0.1817160885
 H      0.3020411786     -0.3232864848      0.7374731678
 H      0.3379905179      0.7040072966     -0.3567955091
3
# ORCA AIMD Position Step 74, t=37.00 fs, E_Pot=-74.96583911 Hartree, Unit is Angstrom
 O     -0.0492554766     -0.1894644739     -0.1829446755
 H      0.2958988158     -0.3235833199      0.7374819809
 H      0.3366004067      0.7031679878     -0.3627521208
3
# ORCA AIMD Position Step 75, t=37.50 fs, E_Pot=-74.96587969 Hartree, Unit is Angstrom
 O     -0.0490662207     -0.1910249740     -0.1841241316
 H      0.2895184845     -0.3241647476      0.7372069206
 H      0.3351355685      0.7024951104     -0.3690414996
3
# ORCA AIMD Position Step 76, t=38.00 fs, E_Pot=-74.96589546 Hartree, Unit is Angstrom
 O     -0.0488627319     -0.1925619406     -0.1852773419
 H      0.2830389719     -0.3249272265      0.7368345472
 H      0.3335746520      0.7017944807     -0.3754900877
3
# ORCA AIMD Position Step 77, t=38.50 fs, E_Pot=-74.96588592 Hartree, Unit is Angstrom
 O     -0.0486529571     -0.1940705145     -0.1864284029
 H      0.2766033756     -0.3257624741      0.7365635399
 H      0.3319001193      0.7008776129     -0.3819170951
3
# ORCA AIMD Position Step 78, t=39.00 fs, E_Pot=-74.96585792 Hartree, Unit is Angstrom
 O     -0.0484450637     -0.1955484445     -0.1875996434
 H      0.2703436156     -0.3265583435      0.7365702580
 H      0.3301091182      0.6995935853     -0.3881474382
3
# ORCA AIMD Position Step 79, t=39.50 fs, E_Pot=-74.96582144 Hartree, Unit is Angstrom
 O     -0.0482471121     -0.1969976151     -0.1888088844
 H      0.2643671177     -0.3272000648      0.7369772000
 H      0.3282215803      0.6978544329     -0.3940237741
3
# ORCA AIMD Position Step 80, t=40.00 fs, E_Pot=-74.96578460 Hartree, Unit is Angstrom
 O     -0.0480667299     -0.1984248626     -0.1900674056
 H      0.2587477183     -0.3275724957      0.7378304849
 H      0.3262841348      0.6956502953     -0.3994163228
3
# ORCA AIMD Position Step 81, t=40.50 fs, E_Pot=-74.96575115 Hartree, Unit is Angstrom
 O     -0.0479108237     -0.1998419139     -0.1913789806
 H      0.2535220642     -0.3275638667      0.7390910797
 H      0.3243691243      0.6930521480     -0.4042294496
3
# ORCA AIMD Position Step 82, t=41.00 fs, E_Pot=-74.96572148 Hartree, Unit is Angstrom
 O     -0.0477853355     -0.2012644084     -0.1927401427
 H      0.2486916679     -0.3270711295      0.7406417312
 H      0.3225686893      0.6902016074     -0.4084043864
3
# ORCA AIMD Position Step 83, t=41.50 fs, E_Pot=-74.96569596 Hartree, Unit is Angstrom
 O     -0.0476950246     -0.2027101041     -0.1941416002
 H      0.2442296488     -0.3260065052      0.7423081667
 H      0.3209845471      0.6872889969     -0.4119179824
3
# ORCA AIMD Position Step 84, t=42.00 fs, E_Pot=-74.96567788 Hartree, Unit is Angstrom
 O     -0.0476432405     -0.2041965081     -0.1955704933
 H      0.2400903865     -0.3243043882      0.7438901642
 H      0.3197147504      0.6845226293     -0.4147779713
3
# ORCA AIMD Position Step 85, t=42.50 fs, E_Pot=-74.96567348 Hartree, Unit is Angstrom
 O     -0.0476316809     -0.2057382922     -0.1970130365
 H      0.2362200115     -0.3219275274      0.7451963796
 H      0.3188393364      0.6820939653     -0.4170158532
3
# ORCA AIMD Position Step 86, t=43.00 fs, E_Pot=-74.96568867 Hartree, Unit is Angstrom
 O     -0.0476601598     -0.2073449310     -0.1984570515
 H      0.2325658430     -0.3188714627      0.7460766351
 H      0.3184072274      0.6801445694     -0.4186789779
3
# ORCA AIMD Position Step 87, t=43.50 fs, E_Pot=-74.96572467 Hartree, Unit is Angstrom
 O     -0.0477264555     -0.2090189984     -0.1998939468
 H      0.2290833792     -0.3151664735      0.7464464069
 H      0.3184268186      0.6787410544     -0.4198235792
3
# ORCA AIMD Position Step 88, t=44.00 fs, E_Pot=-74.96577538 Hartree, Unit is Angstrom
 O     -0.0478263085     -0.2107554623     -0.2013198299
 H      0.2257400485     -0.3108767046      0.7462999568
 H      0.3188622107      0.6778630505     -0.4205102121
3
# ORCA AIMD Position Step 89, t=44.50 fs, E_Pot=-74.96582864 Hartree, Unit is Angstrom
 O     -0.0479536178     -0.2125421290     -0.2027356032
 H      0.2225155061     -0.3060965531      0.7457104488
 H      0.3196360347      0.6774066883     -0.4208023134
3
# ORCA AIMD Position Step 90, t=45.00 fs, E_Pot=-74.96587084 Hartree, Unit is Angstrom
 O     -0.0481008304     -0.2143611611     -0.2041460716
 H      0.2193987611     -0.3009447708      0.7448172500
 H      0.3206385048      0.6772027937     -0.4207676585
3
# ORCA AIMD Position Step 91, t=45.50 fs, E_Pot=-74.96589244 Hartree, Unit is Angstrom
 O     -0.0482594686     -0.2161913790     -0.2055582525
 H      0.2163828573     -0.2955570095      0.7438023883
 H      0.3217411071      0.6770459479     -0.4204816639
3
# ORCA AIMD Position Step 92, t=46.00 fs, E_Pot=-74.96589116 Hartree, Unit is Angstrom
 O     -0.0484207161     -0.2180109312     -0.2069792126
 H      0.2134582073     -0.2900776895      0.7428598121
 H      0.3228125488      0.6767286657     -0.4200310492
3
# ORCA AIMD Position Step 93, t=46.50 fs, E_Pot=-74.96587154 Hartree, Unit is Angstrom
 O     -0.0485759856     -0.2197998869     -0.2084138380
 H      0.2106059687     -0.2846520646      0.7421624836
 H      0.3237343873      0.6760745357     -0.4195163980
3
# ORCA AIMD Position Step 94, t=47.00 fs, E_Pot=-74.96584134 Hartree, Unit is Angstrom
 O     -0.0487174210     -0.2215423737     -0.2098629683
 H      0.2077929476     -0.2794191825      0.7418330660
 H      0.3244140718      0.6749650252     -0.4190525387
3
# ORCA AIMD Position Step 95, t=47.50 fs, E_Pot=-74.96580744 Hartree, Unit is Angstrom
 O     -0.0488383092     -0.2232279976     -0.2113222687
 H      0.2049693276     -0.2745061415      0.7419236208
 H      0.3247937435      0.6733562237     -0.4187661988
3
# ORCA AIMD Position Step 96, t=48.00 fs, E_Pot=-74.96577356 Hartree, Unit is Angstrom
 O     -0.0489333917     -0.2248524191     -0.2127820837
 H      0.2020699995     -0.2700236964      0.7424081350
 H      0.3248538481      0.6712835460     -0.4187908974
3
# ORCA AIMD Position Step 97, t=48.50 fs, E_Pot=-74.96574102 Hartree, Unit is Angstrom
 O     -0.0489990616     -0.2264170762     -0.2142283261
 H      0.1990195080     -0.2660630110      0.7431891128
 H      0.3246113065      0.6688540695     -0.4192594465
3
# ORCA AIMD Position Step 98, t=49.00 fs, E_Pot=-74.96571139 Hartree, Unit is Angstrom
 O     -0.0490334218     -0.2279281497     -0.2156442571
 H      0.1957398387     -0.2626932546      0.7441165928
 H      0.3241126496      0.6662276925     -0.4202947275
3
# ORCA AIMD Position Step 99, t=49.50 fs, E_Pot=-74.96568872 Hartree, Unit is Angstrom
 O     -0.0490361852     -0.2293949522     -0.2170128509
 H      0.1921596803     -0.2599598042      0.7450156124
 H      0.3234231734      0.6635897629     -0.4219996263
3
# ORCA AIMD Position Step 100, t=50.00 fs, E_Pot=-74.96567947 Hartree, Unit is Angstrom
 O     -0.0490084225     -0.2308280010     -0.2183193502
 H      0.1882235579     -0.2578829796      0.7457169044
 H      0.3226138011      0.6611192197     -0.4244471816
