10
step 0
 O -0.4829026131 -0.0448087060  1.2380856018
 C  1.4718201055  0.0837045798 -0.1903871530
 C -0.0402942336 -0.0039493425  0.1034075046
 C -0.9526715327 -0.0354993959 -1.1404021845
 H  2.0340120890  0.1018972683  0.7375453159
 H  1.6908336861  0.9847897820 -0.7564913506
 H  1.7878685318 -0.7718279924 -0.7807929578
 H -0.8066607872  0.8628635043 -1.7337230816
 H -0.7092902900 -0.8936969829 -1.7606068992
 H -1.9937149470 -0.0977727138 -0.8407348185
10
step 1
 O -0.4806579452 -0.0442917974  1.2396007271
 C  1.4716963726  0.0889831343 -0.1849780004
 C -0.0374074255 -0.0034149064  0.1041719349
 C -0.9491363185 -0.0377334006 -1.1377965752
 H  2.0266977483  0.1090091731  0.7341420484
 H  1.6841872410  0.9922479213 -0.7589627568
 H  1.7917756876 -0.7763349150 -0.7831248559
 H -0.7995297177  0.8586630457 -1.7339710206
 H -0.7181158262 -0.8897209632 -1.7597556599
 H -1.9905098074 -0.1117072911 -0.8434258644
10
step 2
 O -0.4784203916 -0.0437767204  1.2411007445
 C  1.4715663645  0.0941813749 -0.1797826817
 C -0.0345537069 -0.0028928188  0.1049631958
 C -0.9456401435 -0.0399274299 -1.1351972708
 H  2.0201206240  0.1161547697  0.7318265372
 H  1.6775729433  0.9992630935 -0.7611100503
 H  1.7953212622 -0.7797124202 -0.7846594915
 H -0.7925957680  0.8544929496 -1.7341244688
 H -0.7264441654 -0.8863785629 -1.7592435571
 H -1.9873433011 -0.1252748883 -0.8459761929
10
step 3
 O -0.4761886444 -0.0432632039  1.2425761247
 C  1.4714214592  0.0992510712 -0.1749736539
 C -0.0317559350 -0.0023940574  0.1058124821
 C -0.9422067016 -0.0420557489 -1.1326044708
 H  2.0149283234  0.1233938730  0.7315780031
 H  1.6710148573  1.0054770909 -0.7626502688
 H  1.7982249883 -0.7810466057 -0.7847430720
 H -0.7860200528  0.8503751417 -1.7340972242
 H -0.7338437461 -0.8842188734 -1.7593651013
 H -1.9842402099 -0.1381691128 -0.8482561393
10
step 4
 O -0.4739616551 -0.0427510432  1.2440186629
 C  1.4712570029  0.1041588860 -0.1706794901
 C -0.0290357095 -0.0019289966  0.1067487387
 C -0.9388566102 -0.0441045956 -1.1300242891
 H  2.0116008090  0.1307817210  0.7341075658
 H  1.6645570817  1.0106296267 -0.7633609429
 H  1.8003016494 -0.7796918070 -0.7829072393
 H -0.7799494298  0.8463429209 -1.7338179377
 H -0.7399431323 -0.8836469451 -1.7603199426
 H -1.9812172622 -0.1501029922 -0.8501435337
10
step 5
 O -0.4717388221 -0.0422401272  1.2454220191
 C  1.4710779444  0.1088874016 -0.1669689904
 C -0.0264128609 -0.0015070837  0.1077976399
 C -0.9356062811 -0.0460765219 -1.1274714550
 H  2.0103666629  0.1383632670  0.7397195158
 H  1.6582649628  1.0145858881 -0.7631015228
 H  1.8014738598 -0.7753058038 -0.7788957901
 H -0.7745116517  0.8424433337 -1.7332349559
 H -0.7444498514 -0.8848670745 -1.7621701368
 H -1.9782831473 -0.1608186522 -0.8515282930
10
step 6
 O -0.4695201846 -0.0417304718  1.2467821349
 C  1.4709016179  0.1134353405 -0.1638435943
 C -0.0239050559 -0.0011365274  0.1089807863
 C -0.9324674412 -0.0479919310 -1.1249704625
 H  2.0111638357  0.1461673709  0.7482443853
 H  1.6522237860  1.0173503237 -0.7618257284
 H  1.8017770027 -0.7678627386 -0.7726751628
 H -0.7698116592  0.8387367102 -1.7323188633
 H -0.7471599115 -0.8878569196 -1.7648190850
 H -1.9754390612 -0.1700959568 -0.8523166809
10
step 7
 O -0.4673066136 -0.0412222524  1.2480975540
 C  1.4707561394  0.1178175555 -0.1612396549
 C -0.0215274259 -0.0008240419  0.1103150025
 C -0.9294472140 -0.0498873423 -1.1225546486
 H  2.0136586008  0.1542027105  0.7590676321
 H  1.6465351615  1.0190665645 -0.7595842479
 H  1.8013594947 -0.7576514900 -0.7644334759
 H -0.7659291856  0.8352931987 -1.7310624332
 H -0.7479582474 -0.8923782785 -1.7680179380
 H -1.9726796999 -0.1777598032 -0.8524349337
10
step 8
 O -0.4650999739 -0.0407158266  1.2493696565
 C  1.4706749490  0.1220648180 -0.1590396243
 C -0.0192921908 -0.0005746588  0.1118117188
 C -0.9265485662 -0.0518107780 -1.1202633215
 H  2.0173156141  0.1624567481  0.7712439766
 H  1.6413114664  1.0200037884 -0.7565176880
 H  1.8004786830 -0.7452605316 -0.7545688087
 H -0.7629176356  0.8321866775 -1.7294780831
 H -0.7468120711 -0.8980209033 -1.7713978463
 H -1.9699946796 -0.1836857767 -0.8518319397
10
step 9
 O -0.4629032367 -0.0402117458  1.2506028158
 C  1.4706897149  0.1262228968 -0.1570892047
 C -0.0172083074 -0.0003916112  0.1134764603
 C -0.9237709119 -0.0538153405 -1.1181376037
 H  2.0214955230  0.1708981278  0.7836597179
 H  1.6366686387  1.0205300227 -0.7528401867
 H  1.7994899443 -0.7315435397 -0.7436632632
 H -0.7608041189  0.8294868436 -1.7275932916
 H -0.7437598060 -0.9042679587 -1.7745198974
 H -1.9673703181 -0.1878039115 -0.8504807616
10
step 10
 O -0.4607205341 -0.0397107549  1.2518044686
 C  1.4708242847  0.1303500096 -0.1552171952
 C -0.0152812025 -0.0002762841  0.1153084942
 C -0.9211107400 -0.0559522859 -1.1162158953
 H  2.0255533251  0.1794818515  0.7951988457
 H  1.6327176892  1.0210734850 -0.7488147388
 H  1.7988245360 -0.7175552614 -0.7324365257
 H -0.7595904602  0.8272505579 -1.7254447282
 H -0.7388979892 -0.9105688006 -1.7769316518
 H -1.9647915646 -0.1901003714 -0.8483789533
10
step 11
 O -0.4585571647 -0.0392137855  1.2529850897
 C  1.4710916639  0.1345116302 -0.1532557563
 C -0.0135126533 -0.0002282202  0.1173006852
 C -0.9185622332 -0.0582647199 -1.1145297555
 H  2.0289189525  0.1881560413  0.8048814808
 H  1.6295555311  1.0220744306 -0.7447222442
 H  1.7989515155 -0.7044472544 -0.7216729878
 H -0.7592549280  0.8255136369 -1.7230720305
 H -0.7323677646 -0.9164067347 -1.7782203079
 H -1.9622437280 -0.1906170134 -0.8455478027
10
step 12
 O -0.4564195600 -0.0387219492  1.2541580515
 C  1.4714946945  0.1387721356 -0.1510598567
 C -0.0119008481 -0.0002451658  0.1194395978
 C -0.9161179150 -0.0607826174 -1.1131006819
 H  2.0311533624  0.1968691126  0.8119623091
 H  1.6272559819  1.0239320646 -0.7408275079
 H  1.8003219703 -0.6933214233 -0.7121221163
 H -0.7597543742  0.8242842246 -1.7205122269
 H -0.7243418456 -0.9213541134 -1.7780560810
 H -1.9597136283 -0.1894490160 -0.8420307849
10
step 13
 O -0.4543152226 -0.0382365351  1.2553393487
 C  1.4720297229  0.1431840759 -0.1485248038
 C -0.0104406167 -0.0003231422  0.1217058643
 C -0.9137693776 -0.0635194385 -1.1119379363
 H  2.0319821430  0.2055764798  0.8159911630
 H  1.6258619811  1.0269532391 -0.7373465447
 H  1.8033006456 -0.6850571650 -0.7043834027
 H -0.7610264578  0.8235386694 -1.7177957081
 H -0.7150123256 -0.9251118922 -1.7762231896
 H -1.9571899242 -0.1867409506 -0.8378915667
10
step 14
 O -0.4522526257 -0.0377590085  1.2565471701
 C  1.4726914391  0.1477775848 -0.1456000243
 C -0.0091237886 -0.0004565326  0.1240748213
 C -0.9115081087 -0.0664703295 -1.1110373551
 H  2.0313121839  0.2142462253  0.8168439713
 H  1.6253800774  1.0313109088 -0.7344200792
 H  1.8080990766 -0.6801499170 -0.6988010690
 H -0.7629916957  0.8232205118 -1.7149443901
 H -0.7045794863 -0.9275338810 -1.7726384308
 H -1.9546626158 -0.1826817542 -0.8332118358
10
step 15
 O -0.4502410529 -0.0372910068  1.2578013071
 C  1.4734766475  0.1525535132 -0.1422966291
 C -0.0079396167 -0.0006381842  0.1265174104
 C -0.9093263697 -0.0696118028 -1.1103810261
 H  2.0292362623  0.2228633790  0.8147313914
 H  1.6257780374  1.0370197703 -0.7320976363
 H  1.8147301338 -0.6786106771 -0.6954004660
 H -0.7655552197  0.8232428487 -1.7119723244
 H -0.6932417435 -0.9286370012 -1.7673582933
 H -1.9521220081 -0.1774989888 -0.8280890586
10
step 16
 O -0.4482903475 -0.0368343219  1.2591224071
 C  1.4743853551  0.1574830543 -0.1386867694
 C -0.0068752216 -0.0008595337  0.1290013459
 C -0.9072180116 -0.0729028339 -1.1099377843
 H  2.0260272705  0.2314325503  0.8101875928
 H  1.6269860455  1.0439338948 -0.7303350251
 H  1.8230003724 -0.6799633384 -0.6938889518
 H -0.7686083037  0.8234939980 -1.7088886000
 H -0.6811870421 -0.9285983721 -1.7605752455
 H -1.9495576705 -0.1714525888 -0.8226340701
10
step 17
 O -0.4464105557 -0.0363908618  1.2605311003
 C  1.4754191044  0.1625140194 -0.1348944473
 C -0.0059160410 -0.0011107655  0.1314925436
 C -0.9051790634 -0.0762873999 -1.1096645890
 H  2.0221199342  0.2399785643  0.8040356561
 H  1.6289014661  1.0517669991 -0.7290055900
 H  1.8325433583 -0.6833412446 -0.6937208175
 H -0.7720298947  0.8238460229 -1.7057020030
 H -0.6685863706 -0.9277388621 -1.7526029729
 H -1.9469580357 -0.1648280813 -0.8169682659
10
step 18
 O -0.4446114753 -0.0359625954  1.2620470477
 C  1.4765780941  0.1675812363 -0.1310792411
 C -0.0050462877 -0.0013810018  0.1339567604
 C -0.9032078978 -0.0796985136 -1.1095089014
 H  2.0180748371  0.2485444704  0.7973214912
 H  1.6313966067  1.0601315133 -0.7279230031
 H  1.8428820044 -0.6876478665 -0.6942027301
 H -0.7756884666  0.8241652981 -1.7024266145
 H -0.6555905490 -0.9264918890 -1.7438498102
 H -1.9443112108 -0.1579291575 -0.8112201807
10
step 19
 O -0.4429021505 -0.0355514859  1.2636879758
 C  1.4778593506  0.1726175579 -0.1274153376
 C -0.0042494346 -0.0016585219  0.1363613505
 C -0.9013048092 -0.0830637205 -1.1094121309
 H  2.0145192213  0.2571859956  0.7912080769
 H  1.6343284714  1.0685892478 -0.7268713932
 H  1.8535004114 -0.6917316263 -0.6946073705
 H -0.7794444600  0.8243240225 -1.6990874188
 H -0.6423317440 -0.9253567705 -1.7347802448
 H -1.9416072975 -0.1510695192 -0.8055213729
10
step 20
 O -0.4412903717 -0.0351594233  1.2654687601
 C  1.4792576123  0.1775629025 -0.1240683756
 C -0.0035087376 -0.0019310064  0.1386770016
 C -0.8994709232 -0.0863117785 -1.1093140358
 H  2.0120633767  0.2659616131  0.7868292646
 H  1.6375492469  1.0767051676 -0.7256377579
 H  1.8639083848 -0.6945352644 -0.6942701056
 H -0.7831534452  0.8242114044 -1.6957250153
 H -0.6289308482 -0.9248383694 -1.7258664528
 H -1.9388420874 -0.1445640876 -0.8000017449
10
step 21
 O -0.4397822346 -0.0347881638  1.2674006108
 C  1.4807690147  0.1823704137 -0.1211727416
 C -0.0028077746 -0.0021858036  0.1408793026
 C -0.8977065172 -0.0893798642 -1.1091576615
 H  2.0112011594  0.2749184077  0.7851183720
 H  1.6409163068  1.0840966319 -0.7240419187
 H  1.8736900534 -0.6952021036 -0.6926576385
 H -0.7866699932  0.8237431832 -1.6923986561
 H -0.6155105864 -0.9253789242 -1.7175350351
 H -1.9360214992 -0.1387198327 -0.7947846521
10
step 22
 O -0.4383818004 -0.0344392830  1.2694903999
 C  1.4823959060  0.1870100302 -0.1188125143
 C -0.0021309503 -0.0024102107  0.1429500134
 C -0.8960090406 -0.0922202747 -1.1088941074
 H  2.0122153415  0.2840759899  0.7866463692
 H  1.6443008016  1.0904727236 -0.7219604204
 H  1.8825358281 -0.6931402334 -0.6894092522
 H -0.7898521252  0.8228682526 -1.6891870260
 H -0.6022120677 -0.9272924806 -1.7101172688
 H -1.9331657143 -0.1338265929 -0.7899823057
10
step 23
 O -0.4370908767 -0.0341141422  1.2717401550
 C  1.4841501226  0.1914701492 -0.1170095703
 C -0.0014638963 -0.0025917624  0.1448779572
 C -0.8943713103 -0.0948054087 -1.1084862742
 H  2.0151155380  0.2934129191  0.7915154104
 H  1.6475942858  1.0956608889 -0.7193422452
 H  1.8902612448 -0.6880547420 -0.6843568287
 H -0.7925661537  0.8215714093 -1.6861864034
 H -0.5892102775 -0.9307149560 -1.7038125414
 H -1.9303117680 -0.1301482771 -0.7856920110
10
step 24
 O -0.4359089178 -0.0338138662  1.2741467469
 C  1.4860524939  0.1957579408 -0.1157213479
 C -0.0007937149 -0.0027185185  0.1466595134
 C -0.8927804242 -0.0971299960 -1.1079108911
 H  2.0196305525  0.3028606647  0.7993433482
 H  1.6507131391  1.0996201509 -0.7162155543
 H  1.8968169605 -0.6799587335 -0.6775301994
 H -0.7946917046  0.8198716605 -1.6835060913
 H -0.5767229832 -0.9355814105 -1.6986727893
 H -1.9275134777 -0.1279148061 -0.7819936952
10
step 25
 O -0.4348330354 -0.0335393277  1.2767018024
 C  1.4881281149  0.1998986271 -0.1148483163
 C -0.0001090503 -0.0027793413  0.1482987156
 C -0.8912178047 -0.0992101060 -1.1071585331
 H  2.0252582865  0.3123079668  0.8093442249
 H  1.6536006801  1.1024412811 -0.7126856482
 H  1.9022924902 -0.6691695329 -0.6691518518
 H -0.7961266863  0.8178160614 -1.6812612951
 H -0.5650087165 -0.9416361127 -1.6946108212
 H -1.9248380187 -0.1273151062 -0.7789489948
10
step 26
 O -0.4338581075 -0.0332911376  1.2793918717
 C  1.4903989645  0.2039338181 -0.1142486184
 C  0.0005999844 -0.0027641501  0.1498069775
 C -0.8896604845 -0.1010792330 -1.1062318562
 H  2.0313556257  0.3216145789  0.8204760729
 H  1.6562268864  1.1043346664 -0.7089249044
 H  1.9069134176 -0.6562902792 -0.6596214652
 H -0.7967919175  0.8154696865 -1.6795639747
 H -0.5543526723 -0.9484726328 -1.6914292981
 H -1.9223591260 -0.1284914338 -0.7766019328
10
step 27
 O -0.4329769805 -0.0330696427  1.2821988668
 C  1.4928765763  0.2079187318 -0.1137562337
 C  0.0013419691 -0.0026641376  0.1512024719
 C -0.8880834051 -0.1027823952 -1.1051426657
 H  2.0372405707  0.3306302737  0.8316108918
 H  1.6585856620  1.1056066974 -0.7051557596
 H  1.9110287993 -0.6421712260 -0.6494874512
 H -0.7966350755  0.8129030028 -1.6785125528
 H -0.5450430651 -0.9555941030 -1.6888625393
 H -1.9201476284 -0.1315352511 -0.7749809463
10
step 28
 O -0.4321807560 -0.0328749320  1.2851007496
 C  1.4955572813  0.2119178167 -0.1131996859
 C  0.0021243616 -0.0024719302  0.1525092073
 C -0.8864622536 -0.1043694775 -1.1039085543
 H  2.0422827980  0.3392143328  0.8416878747
 H  1.6606897505  1.1066258692 -0.7016280585
 H  1.9150833866 -0.6278415316 -0.6394007714
 H -0.7956336138  0.8101784725 -1.6781816747
 H -0.5373429308 -0.9624807837 -1.6866219298
 H -1.9182606589 -0.1364847796 -0.7741017756
10
step 29
 O -0.4314591512 -0.0327068549  1.2880724169
 C  1.4984214685  0.2159981835 -0.1124197759
 C  0.0029536583 -0.0021816827  0.1537558651
 C -0.8847763076 -0.1058889516 -1.1025497158
 H  2.0459704672  0.3472521487  0.8498295787
 H  1.6625637223  1.1077807810 -0.6985924894
 H  1.9195695386 -0.6144037166 -0.6300472758
 H -0.7937963522  0.8073385196 -1.6786133647
 H -0.5314627191 -0.9686534767 -1.6844373225
 H -1.9167312735 -0.1433242198 -0.7739705478
10
step 30
 O -0.4308009118 -0.0325650496  1.2910866982
 C  1.5014369269  0.2202206913 -0.1112858096
 C  0.0038355055 -0.0017891028  0.1549744725
 C -0.8830108434 -0.1073827598 -1.1010862855
 H  2.0479521190  0.3546675632  0.8554183947
 H  1.6642358811  1.1094337832 -0.6962724079
 H  1.9249579587 -0.6028919667 -0.6220601306
 H -0.7911635632  0.8043969027 -1.6798108477
 H -0.5275377106 -0.9737253348 -1.6820899399
 H -1.9155602780 -0.1519844821 -0.7745863307
10
step 31
 O -0.4301942486 -0.0324489773  1.2941153787
 C  1.5045650121  0.2246296900 -0.1097097343
 C  0.0047747698 -0.0012914175  0.1561989862
 C -0.8811588268 -0.1088827527 -1.0995363217
 H  2.0480586003  0.3614309914  0.8581404347
 H  1.6657303065  1.1118757024 -0.6948369856
 H  1.9316151916 -0.5941122559 -0.6159235644
 H -0.7878055198  0.8013350393 -1.6817359803
 H -0.5256123649 -0.9774388882 -1.6794352320
 H -1.9147117955 -0.1623451869 -0.7759425251
10
step 32
 O -0.4296272635 -0.0323579577  1.2971301719
 C  1.5077673757  0.2292438533 -0.1076568290
 C  0.0057755898 -0.0006873004  0.1574638523
 C -0.8792217498 -0.1104087596 -1.0979144071
 H  2.0463110411  0.3675638981  0.8580056794
 H  1.6670604049  1.1152881548 -0.6943790398
 H  1.9397263423 -0.5885005661 -0.6118893913
 H -0.7838196065  0.7981040000 -1.6843107349
 H -0.5256321208 -0.9796880365 -1.6764159763
 H -1.9141135707 -0.1742377129 -0.7780266845
10
step 33
 O -0.4290883308 -0.0322911966  1.3001035995
 C  1.5110107756  0.2340511921 -0.1051509982
 C  0.0068414372  0.0000232097  0.1588025951
 C -0.8772095825 -0.1119681961 -1.0962308100
 H  2.0429187003  0.3731400045  0.8553496979
 H  1.6682251653  1.1197197467 -0.6949008334
 H  1.9492468578 -0.5860424422 -0.6099312201
 H -0.7793261878  0.7946319344 -1.6874226233
 H -0.5274423801 -0.9805258839 -1.6730664577
 H -1.9136623121 -0.1874492217 -0.7808186939
10
step 34
 O -0.4285664118 -0.0322478040  1.3030097698
 C  1.5142684162  0.2390103329 -0.1022730333
 C  0.0079752081  0.0008387864  0.1602464768
 C -0.8751398598 -0.1135570751 -1.0944911849
 H  2.0382667702  0.3782830375  0.8508162644
 H  1.6692088021  1.1250806423 -0.6963103966
 H  1.9599009495 -0.5862823026 -0.6097522018
 H -0.7744634726  0.7908357976 -1.6909334389
 H -0.5307943465 -0.9801590028 -1.6695082250
 H -1.9132336338 -0.2017277906 -0.7842876182
10
step 35
 O -0.4280512928 -0.0322268055  1.3058250686
 C  1.5175181012  0.2440577870 -0.0991513894
 C  0.0091793433  0.0017568894  0.1618232734
 C -0.8730359636 -0.1151623026 -1.0926968523
 H  2.0328905221  0.3831601767  0.8453141517
 H  1.6699837312  1.1311567923 -0.6984295196
 H  1.9712275087 -0.5884188887 -0.6108435487
 H -0.7693816409  0.7866356175 -1.6946903188
 H -0.5353576528 -0.9789278528 -1.6659372818
 H -1.9126954826 -0.2167889182 -0.7883878665
10
step 36
 O -0.4275337550 -0.0322271482  1.3085287678
 C  1.5207391785  0.2491187542 -0.0959463354
 C  0.0104559642  0.0027738487  0.1635562210
 C -0.8709247122 -0.1167651548 -1.0908457390
 H  2.0274300888  0.3879699288  0.8399378267
 H  1.6705160875  1.1376413683 -0.7010126832
 H  1.9826572446 -0.5914534243 -0.6125740638
 H -0.7642365332  0.7819692543 -1.6985378982
 H -0.5407397640 -0.9772726765 -1.6626022569
 H -1.9119234079 -0.2323236036 -0.7930554992
10
step 37
 O -0.4270056882 -0.0322477085  1.3111035474
 C  1.5239107629  0.2541183555 -0.0928291874
 C  0.0118069972  0.0038849767  0.1654631741
 C -0.8688334522 -0.1183457570 -1.0889340305
 H  2.0225616595  0.3929234299  0.8358441232
 H  1.6707724751  1.1441777503 -0.7037743024
 H  1.9935975781 -0.5943468784 -0.6142852781
 H -0.7591832614  0.7768056432 -1.7023302427
 H -0.5465115759 -0.9756851074 -1.6597736380
 H -1.9108157319 -0.2480079533 -0.7982055016
10
step 38
 O -0.4264601631 -0.0322873011  1.3135359079
 C  1.5270127458  0.2589910397 -0.0899589175
 C  0.0132342664  0.0050847119  0.1675560011
 C -0.8667869537 -0.1198882010 -1.0869584662
 H  2.0189075310  0.3982196337  0.8340883898
 H  1.6707265383  1.1504067548 -0.7064202856
 H  2.0035062873 -0.5961531316 -0.6153728249
 H -0.7543701386  0.7711548122 -1.7059412974
 H -0.5522374123 -0.9746483390 -1.6577057770
 H -1.9093066446 -0.2635139480 -0.8037306728
10
step 39
 O -0.4258914752 -0.0323446926  1.3158164475
 C  1.5300292412  0.2636872358 -0.0874592552
 C  0.0147395485  0.0063667922  0.1698402156
 C -0.8648045037 -0.1213856529 -1.0849190022
 H  2.0169386313  0.4040175496  0.8354436852
 H  1.6703642277  1.1560110277 -0.7086794469
 H  2.0119449895 -0.5961137912 -0.6153454577
 H -0.7499333096  0.7650734247 -1.7092727628
 H -0.5575061495 -0.9745725863 -1.6565958679
 H -1.9073754994 -0.2785207225 -0.8095024827
10
step 40
 O -0.4252951642 -0.0324186168  1.3179399881
 C  1.5329524190  0.2681772484 -0.0854003152
 C  0.0163246016  0.0077244431  0.1723148299
 C -0.8628976295 -0.1228445482 -1.0828213471
 H  2.0168936908  0.4104116129  0.8402468728
 H  1.6696871594  1.1607512279 -0.7103307658
 H  2.0186124550 -0.5937159220 -0.6138619306
 H -0.7459923827  0.7586651152 -1.7122585892
 H -0.5619591741 -0.9757362509 -1.6565465516
 H -1.9050510703 -0.2927256075 -0.8153739449
10
step 41
 O -0.4246680154 -0.0325077907  1.3199055540
 C  1.5357841395  0.2724527689 -0.0837887465
 C  0.0179911863  0.0091505679  0.1749724135
 C -0.8610688167 -0.1242869056 -1.0806787645
 H  2.0187407867  0.4174173005  0.8483206029
 H  1.6687139683  1.1644909058 -0.7112236096
 H  2.0233622940 -0.5887213251 -0.6107502259
 H -0.7426472352  0.7520753968 -1.7148656235
 H -0.5653110030 -0.9782446097 -1.6575398945
 H -1.9024101577 -0.3058542424 -0.8211842915
10
step 42
 O -0.4240080402 -0.0326109300  1.3217162236
 C  1.5385338333  0.2765264840 -0.0825685149
 C  0.0197410924  0.0106379357  0.1777993452
 C -0.8593114138 -0.1257500473 -1.0785126225
 H  2.0221946739  0.4249716149  0.8589997077
 H  1.6674798594  1.1672089912 -0.7112893834
 H  2.0262099731 -0.5811762731 -0.6060139870
 H -0.7399760416  0.7454814411 -1.7170903348
 H -0.5673598703 -0.9820153969 -1.6594290990
 H -1.8995705966 -0.3176692055 -0.8267650617
10
step 43
 O -0.4233144351 -0.0327267682  1.3233788804
 C  1.5412130348  0.2804302841 -0.0816312881
 C  0.0215761611  0.0121793638  0.1807762561
 C -0.8576106825 -0.1272835792 -1.0763514749
 H  2.0267826538  0.4329479032  0.8712525912
 H  1.6660346386  1.1690000856 -0.7105442526
 H  2.0273319289 -0.5714067372 -0.5998290780
 H -0.7380344759  0.7390775777 -1.7189519555
 H -0.5679879315 -0.9867945395 -1.6619504237
 H -1.8966793538 -0.3279767506 -0.8319470988
10
step 44
 O -0.4225875161 -0.0328540781  1.3249038809
 C  1.5438286214  0.2842124610 -0.0808328809
 C  0.0234982784  0.0137678942  0.1838786546
 C -0.8559457437 -0.1289441456 -1.0742288510
 H  2.0319357027  0.4411797830  0.8838562884
 H  1.6644394691  1.1700633063 -0.7090833469
 H  2.0270563153 -0.5599987117 -0.5925303502
 H -0.7368559741  0.7330579196 -1.7204828091
 H -0.5671529805 -0.9921978229 -1.6647528125
 H -1.8938969368 -0.3366313237 -0.8365678637
10
step 45
 O -0.4218286232 -0.0329916920  1.3263046496
 C  1.5463772665  0.2879339482 -0.0800117487
 C  0.0255093051  0.0153969535  0.1870777098
 C -0.8542920488 -0.1307889689 -1.0721802375
 H  2.0370789575  0.4494873881  0.8955759859
 H  1.6627625980  1.1706806778 -0.7070673010
 H  2.0258419408 -0.5477582609 -0.5845860071
 H -0.7364528637  0.7275980356 -1.7217170339
 H -0.5648748535 -0.9977686073 -1.6674387988
 H -1.8913797408 -0.3435376764 -0.8404784448
10
step 46
 O -0.4210399976 -0.0331385200  1.3275972030
 C  1.5488429738  0.2916632401 -0.0790068347
 C  0.0276109172  0.0170604870  0.1903411658
 C -0.8526239966 -0.1328693282 -1.0702398312
 H  2.0417043370  0.4577007558  0.9053141285
 H  1.6610743657  1.1711864664 -0.7047023455
 H  2.0242404355 -0.5356432933 -0.5765555189
 H -0.7368180685  0.7228379061 -1.7226793049
 H -0.5612197347 -1.0030399360 -1.6696088231
 H -1.8892621896 -0.3486506396 -0.8435497025
10
step 47
 O -0.4202246358 -0.0332935644  1.3287996025
 C  1.5511984191  0.2954694703 -0.0776737754
 C  0.0298043449  0.0187530608  0.1936343593
 C -0.8509173955 -0.1352249302 -1.0684375319
 H  2.0454198217  0.4656780343  0.9122159655
 H  1.6594419245  1.1719296704 -0.7022156275
 H  2.0228379939 -0.5246611234 -0.5690282169
 H -0.7379270180  0.7188683686 -1.7233753476
 H -0.5562847637 -1.0075912828 -1.6709021988
 H -1.8876405577 -0.3519729507 -0.8456771316
10
step 48
 O -0.4193861268 -0.0334559298  1.3299313401
 C  1.5534096276  0.2994135715 -0.0758993781
 C  0.0320900234  0.0204699213  0.1969213041
 C -0.8491515626 -0.1378797401 -1.0667964311
 H  2.0479782434  0.4733184724  0.9157347707
 H  1.6579241945  1.1732330777 -0.6998280752
 H  2.0221784197 -0.5157347798 -0.5625447454
 H -0.7397393757  0.7157228152 -1.7237858932
 H -0.5501842940 -1.0110939850 -1.6710304405
 H -1.8865602041 -0.3535518176 -0.8467842176
10
step 49
 O -0.4185284724 -0.0336248238  1.3310126621
 C  1.5554424670  0.3035385435 -0.0736140687
 C  0.0344671866  0.0222070029  0.2001658088
 C -0.8473109334 -0.1408394609 -1.0653308661
 H  2.0492916201  0.4805711922  0.9156667936
 H  1.6565676104  1.1753535562 -0.6977277855
 H  2.0226783059 -0.5095563273 -0.5575121389
 H -0.7422002955  0.7133751327 -1.7238652285
 H -0.5430383145 -1.0133431013 -1.6698011852
 H -1.8860076225 -0.3534750394 -0.8468242439
10
step 50
 O -0.4176558882 -0.0337995437  1.3320638485
 C  1.5572687410  0.3078611174 -0.0708011600
 C  0.0369334502  0.0239608806  0.2033325974
 C -0.8453861035 -0.1440905924 -1.0640450125
 H  2.0494362874  0.4874406929  0.9121650151
 H  1.6554031342  1.1784490235 -0.6960473401
 H  2.0245542664 -0.5064609561 -0.5541318289
 H -0.7452410971  0.7117439569 -1.7235447381
 H -0.5349631101 -1.0142757831 -1.6671325801
 H -1.8859082626 -0.3518674137 -0.8457806303
10
step 51
 O -0.4167725800 -0.0339794511  1.3331044625
 C  1.5588697652  0.3123675838 -0.0675011340
 C  0.0394844355  0.0257286732  0.2063884266
 C -0.8433742398 -0.1476009209 -1.0629320081
 H  2.0486510716  0.4939893160  0.9057352752
 H  1.6544448393  1.1825573593 -0.6948483755
 H  2.0277845165 -0.5063599960 -0.5523620372
 H -0.7487794922  0.7107024676 -1.7227409978
 H -0.5260641733 -1.0139769888 -1.6630585531
 H -1.8861305378 -0.3488878426 -0.8436659216
10
step 52
 O -0.4158824930 -0.0341639399  1.3341525981
 C  1.5602364281  0.3170155547 -0.0638093009
 C  0.0421134813  0.0275079215  0.2093031973
 C -0.8412788076 -0.1513213303 -1.0619736803
 H  2.0473268382  0.5003358397  0.8972111167
 H  1.6536901613  1.1875910976 -0.6941159771
 H  2.0321181573 -0.5087563005 -0.5519274272
 H -0.7527196921  0.7100923483 -1.7213672476
 H -0.5164316265 -1.0126729363 -1.6577251037
 H -1.8864958486 -0.3447270895 -0.8405195083
10
step 53
 O -0.4149890393 -0.0343523989  1.3352241668
 C  1.5613665274  0.3217413253 -0.0598661335
 C  0.0448114756  0.0292964614  0.2120510341
 C -0.8391085692 -0.1551889002 -1.0611410294
 H  2.0459820358  0.5066482543  0.8876972582
 H  1.6531216946  1.1933491909 -0.6937640247
 H  2.0371286195 -0.5128368205 -0.5523727002
 H -0.7569528337  0.7097402079 -1.7193465950
 H -0.5061388151 -1.0107118864 -1.6513772165
 H -1.8867938318 -0.3396057115 -0.8364041240
10
step 54
 O -0.4140948214 -0.0345441723  1.3363322761
 C  1.5622616035  0.3264706541 -0.0558407457
 C  0.0475668087  0.0310923055  0.2146112700
 C -0.8368758427 -0.1591312732 -1.0603956427
 H  2.0452168840  0.5131280870  0.8784691999
 H  1.6527102142  1.1995440196 -0.6936507342
 H  2.0422929891 -0.5176116693 -0.5531426066
 H -0.7613581160  0.7094746805 -1.7166251532
 H -0.4952450848 -1.0085315612 -1.6443358626
 H -1.8868014486 -0.3337714766 -0.8314012074
10
step 55
 O -0.4132013772 -0.0347385176  1.3374867446
 C  1.5629256905  0.3311302476 -0.0519090243
 C  0.0503654306  0.0328935374  0.2169692544
 C -0.8345940835 -0.1630721736 -1.0596921277
 H  2.0456409243  0.5199842278  0.8708222967
 H  1.6524184578  1.2058389922 -0.6936017887
 H  2.0470746175 -0.5220608355 -0.5536664051
 H -0.7658048866  0.7091425103 -1.7131834557
 H -0.4838037365 -1.0066134521 -1.6369653530
 H -1.8863040149 -0.3274956335 -0.8256053367
10
step 56
 O -0.4123089790 -0.0349345668  1.3386937847
 C  1.5633671982  0.3356578929 -0.0482290589
 C  0.0531909847  0.0346982146  0.2191169005
 C -0.8322749532 -0.1669377276 -1.0589814613
 H  2.0477768534  0.5273970083  0.8658807637
 H  1.6522051595  1.2118904447 -0.6934371539
 H  2.0509923257 -0.5252590889 -0.5534300738
 H -0.7701557230  0.7086221289 -1.7090448359
 H -0.4718754542 -1.0054267341 -1.6296331862
 H -1.8851159754 -0.3210676688 -0.8191181194
10
step 57
 O -0.4114165111 -0.0351312924  1.3399558629
 C  1.5636031318  0.3400101444 -0.0449179025
 C  0.0560250015  0.0365042714  0.2210529204
 C -0.8299251906 -0.1706629262 -1.0582148930
 H  2.0519570809  0.5354783299  0.8644022792
 H  1.6520289040  1.2173875253 -0.6929972879
 H  2.0536694017 -0.5264662101 -0.5520287355
 H -0.7742703916  0.7078334858 -1.7042798865
 H -0.4595459647 -1.0053680157 -1.6226670851
 H -1.8830991752 -0.3147885106 -0.8120420786
10
step 58
 O -0.4105214395 -0.0353274815  1.3412717310
 C  1.5636631251  0.3441670902 -0.0420346508
 C  0.0588471691  0.0383094202  0.2227827423
 C -0.8275437442 -0.1741973086 -1.0573478097
 H  2.0582416715  0.5442386895  0.8666333275
 H  1.6518515149  1.2220851359 -0.6921650263
 H  2.0548635051 -0.5251833165 -0.5491992834
 H -0.7780104742  0.7067431780 -1.6990065228
 H -0.4469446337 -1.0067064498 -1.6163161308
 H -1.8801766044 -0.3089624124 -0.8044751670
10
step 59
 O -0.4096198741 -0.0355217191  1.3426366155
 C  1.5635904038  0.3481340593 -0.0395739782
 C  0.0616357206  0.0401110623  0.2243181490
 C -0.8251197259 -0.1775088747 -1.0563428875
 H  2.0663867974  0.5535728758  0.8722655983
 H  1.6516408273  1.2258270460 -0.6908806835
 H  2.0544821836 -0.5211826142 -0.5448369154
 H -0.7812444364  0.7053642316 -1.6933854971
 H -0.4342589976 -1.0095449893 -1.6107234879
 H -1.8763399803 -0.3038878962 -0.7965065267
10
step 60
 O -0.4087067175 -0.0357123864  1.3440425554
 C  1.5634381985  0.3519405098 -0.0374711941
 C  0.0643679868  0.0419062315  0.2256766858
 C -0.8226317052 -0.1805854646 -1.0551719901
 H  2.0758765933  0.5632704255  0.8805092810
 H  1.6513727474  1.2285581812 -0.6891493609
 H  2.0525885035 -0.5145181259 -0.5389996561
 H -0.7838528991  0.7037502597 -1.6876114875
 H -0.4217400199 -1.0138064226 -1.6059163409
 H -1.8716500555 -0.2998481983 -0.7882140119
10
step 61
 O -0.4077758881 -0.0358976769  1.3454788836
 C  1.5632624164  0.3556367495 -0.0356161439
 C  0.0670211315  0.0436915894  0.2268808820
 C -0.8200486589 -0.1834333521 -1.0538165935
 H  2.0860068495  0.5730473780  0.8902543386
 H  1.6510324835  1.2303263379 -0.6870406536
 H  2.0493989067 -0.5055213452 -0.5319032732
 H -0.7857338477  0.7019842302 -1.6819002166
 H -0.4096947176 -1.0192473885 -1.6018146366
 H -1.8662291853 -0.2971016975 -0.7796638298
10
step 62
 O -0.4068206024 -0.0360756317  1.3469328415
 C  1.5631130839  0.3592892626 -0.0338712602
 C  0.0695730345  0.0454634804  0.2279573144
 C -0.8173325576 -0.1860734086 -1.0522668954
 H  2.0959922913  0.5825887481  0.9002648889
 H  1.6506148161  1.2312741344 -0.6846816119
 H  2.0452723215 -0.4947807440 -0.5239064798
 H -0.7868074526  0.7001627637 -1.6764725047
 H -0.3984662007 -1.0254968273 -1.5982556128
 H -1.8602464943 -0.2958728292 -0.7709124328
10
step 63
 O -0.4058337013 -0.0362441927  1.3483903015
 C  1.5630273328  0.3629750618 -0.0320896516
 C  0.0720032397  0.0472180374  0.2289355482
 C -0.8144422215 -0.1885356925 -1.0505200346
 H  2.1050688707  0.5915903198  0.9093564606
 H  1.6501233241  1.2316222148 -0.6822440335
 H  2.0406869518 -0.4830995695 -0.5154839838
 H -0.7870201321  0.6983776877 -1.6715366987
 H -0.3884045811 -1.0321100601 -1.5950278166
 H -1.8538969562 -0.2963439750 -0.7620105136
10
step 64
 O -0.4048080033 -0.0364012682  1.3498365583
 C  1.5630258069  0.3667749273 -0.0301311985
 C  0.0742938707  0.0489513185  0.2298470003
 C -0.8113378475 -0.1908535218 -1.0485779207
 H  2.1125739556  0.5997925048  0.9165293227
 H  1.6495686106  1.2316449487 -0.6799271694
 H  2.0362001763 -0.4714244036 -0.5071838806
 H -0.7863475017  0.6966973210 -1.6672713999
 H -0.3798341651 -1.0386278068 -1.5919074760
 H -1.8473767233 -0.2986487316 -0.7530086150
10
step 65