10
step 0
 O -0.4829026131 -0.0448087060  1.2380856018
 C  1.4718201055  0.0837045798 -0.1903871530
 C -0.0402942336 -0.0039493425  0.1034075046
 C -0.9526715327 -0.0354993959 -1.1404021845
 H  2.0340120890  0.1018972683  0.7375453159
 H  1.6908336861  0.9847897820 -0.7564913506
 H  1.7878685318 -0.7718279924 -0.7807929578
 H -0.8066607872  0.8628635043 -1.7337230816
 H -0.7092902900 -0.8936969829 -1.7606068992
 H -1.9937149470 -0.0977727138 -0.8407348185
10
step 1
 O -0.4806585099 -0.0442919275  1.2396003460
 C  1.4716964037  0.0889818063 -0.1849793613
 C -0.0374081518 -0.0034150409  0.1041717425
 C -0.9491372079 -0.0377328386 -1.1377972308
 H  2.0266995885  0.1090073839  0.7341429046
 H  1.6841889131  0.9922460450 -0.7589621350
 H  1.7917747046 -0.7763337811 -0.7831242693
 H -0.7995315117  0.8586641025 -1.7339709582
 H -0.7181136059 -0.8897219635 -1.7597558741
 H -1.9905106137 -0.1117037854 -0.8434251874
10
step 2
 O -0.4784215193 -0.0437769801  1.2410999861
 C  1.4715664290  0.0941787384 -0.1797853490
 C -0.0345551509 -0.0028930844  0.1049628038
 C -0.9456419126 -0.0399263161 -1.1351985801
 H  2.0201241137  0.1161511821  0.7318279669
 H  1.6775762788  0.9992594518 -0.7611088885
 H  1.7953193845 -0.7797104276 -0.7846585130
 H -0.7925993068  0.8544950554 -1.7341243679
 H -0.7264398499 -0.8863804027 -1.7592438985
 H -1.9873449035 -0.1252679696 -0.8459748749
10
step 3
 O -0.4761903336 -0.0432635928  1.2425749954
 C  1.4714215632  0.0992471562 -0.1749775295
 C -0.0317580823 -0.0023944478  0.1058118753
 C -0.9422093348 -0.0420541001 -1.1326064326
 H  2.0149330984  0.1233884609  0.7315794578
 H  1.6710198391  1.0054718835 -0.7626487208
 H  1.7982223675 -0.7810442390 -0.7847420474
 H -0.7860252465  0.8503782833 -1.7340971306
 H -0.7338375682 -0.8842212512 -1.7593654043
 H -1.9842425943 -0.1381589520 -0.8482542499
10
step 4
 O -0.4739639047 -0.0427515611  1.2440171709
 C  1.4712571551  0.1041537295 -0.1706844428
 C -0.0290385404 -0.0019295031  0.1067478948
 C -0.9388600862 -0.0441024320 -1.1300269005
 H  2.0116063754  0.1307744420  0.7341083002
 H  1.6645636789  1.0106231179 -0.7633592199
 H  1.8002984770 -0.7796896936 -0.7829066194
 H -0.7799561521  0.8463470763 -1.7338179151
 H -0.7399354164 -0.8836494567 -1.7603199873
 H -1.9812204137 -0.1500898343 -0.8501411743
10
step 5
 O -0.4717416310 -0.0422407738  1.2454201743
 C  1.4710781522  0.1088810445 -0.1669748720
 C -0.0264163504 -0.0015076948  0.1077965301
 C -0.9356105744 -0.0460738625 -1.1274747094
 H  2.0103724704  0.1383540651  0.7397187068
 H  1.6582731259  1.0145783766 -0.7630998731
 H  1.8014703448 -0.7753046501 -0.7788960851
 H -0.7745197443  0.8424484691 -1.7332350816
 H -0.7444409933 -0.8848692683 -1.7621696874
 H -1.9782870527 -0.1608028092 -0.8515255942
10
step 6
 O -0.4695235517 -0.0417312467  1.2467799481
 C  1.4709018825  0.1134278245 -0.1638502571
 C -0.0239091747 -0.0011372295  0.1089793766
 C -0.9324725230 -0.0479887889 -1.1249743466
 H  2.0111693649  0.1461561824  0.7482412748
 H  1.6522334431  1.0173421096 -0.7618244143
 H  1.8017733501 -0.7678632698 -0.7726768984
 H -0.7698209382  0.8387427766 -1.7323192224
 H -0.7471503567 -0.8878583588 -1.7648179345
 H -1.9754437107 -0.1700777978 -0.8523137984
10
step 7
 O -0.4673105375 -0.0412231551  1.2480950361
 C  1.4707564514  0.1178089205 -0.1612469687
 C -0.0215321403 -0.0008248197  0.1103132546
 C -0.9294530533 -0.0498837202 -1.1225591397
 H  2.0136634407  0.1541894717  0.7590616560
 H  1.6465462157  1.0190579170 -0.7595835210
 H  1.8013558841 -0.7576543906 -0.7644371507
 H -0.7659394474  0.8353001297 -1.7310631127
 H -0.7479484711 -0.8923785972 -1.7680159503
 H -1.9726850879 -0.1777397425 -0.8524320429
10
step 8
 O -0.4651044527 -0.0407168566  1.2493668182
 C  1.4706752869  0.1220550990 -0.1590474891
 C -0.0192974642 -0.0005754956  0.1118095913
 C -0.9265551308 -0.0518066659 -1.1202683863
 H  2.0173195107  0.1624414033  0.7712348480
 H  1.6413237952  1.0199949145 -0.7565177662
 H  1.8004752451 -0.7452663830 -0.7545748498
 H -0.7629286634  0.8321943888 -1.7294791672
 H -0.7468025597 -0.8980198467 -1.7713949866
 H -1.9700008040 -0.1836642601 -0.8518292295
10
step 9
 O -0.4629082676 -0.0402129024  1.2505996664
 C  1.4706900464  0.1262121197 -0.1570975586
 C -0.0172141006 -0.0003924895  0.1134739104
 C -0.9237781692 -0.0538107150 -1.1181431979
 H  2.0214983945  0.1708806359  0.7836474525
 H  1.6366820942  1.0205210419 -0.7528412339
 H  1.7994867350 -0.7315527543 -0.7436719804
 H -0.7608156898  0.8294952340 -1.7275948577
 H -0.7437510420 -0.9042654026 -1.7745162460
 H -1.9673771789 -0.1877814013 -0.8504784279
10
step 10
 O -0.4607261133 -0.0397120371  1.2518010158
 C  1.4708245705  0.1303381874 -0.1552260178
 C -0.0152874747 -0.0002771859  0.1153054790
 C -0.9211186583 -0.0559471115 -1.1162219651
 H  2.0255552482  0.1794621903  0.7951837387
 H  1.6327321006  1.0210644108 -0.7488168501
 H  1.7988215098 -0.7175680169 -0.7324480678
 H -0.7596023504  0.8272595124 -1.7254468445
 H -0.7388904376 -0.9105647510 -1.7769274020
 H -1.9647991614 -0.1900773313 -0.8483771924
10
step 11
 O -0.4585632869 -0.0392151919  1.2529813384
 C  1.4710918630  0.1344987590 -0.1532650674
 C -0.0135193636 -0.0002291276  0.1172971636
 C -0.9185707823 -0.0582589519 -1.1145362397
 H  2.0289201309  0.1881342087  0.8048640526
 H  1.6295707080  1.0220651640 -0.7447254393
 H  1.7989485039 -0.7044634419 -0.7216873092
 H -0.7592669190  0.8255230318 -1.7230747551
 H -0.7323618613 -0.9164013121 -1.7782157507
 H -1.9622520570 -0.1905938935 -0.8455468050
10
step 12
 O -0.4564262184 -0.0387234784  1.2541540033
 C  1.4714947683  0.1387581929 -0.1510697121
 C -0.0119079560 -0.0002460616  0.1194355319
 C -0.9161270670 -0.0607762051 -1.1131075147
 H  2.0311540894  0.1968451250  0.8119432366
 H  1.6272717195  1.0239224002 -0.7408317329
 H  1.8003186725 -0.6933406294 -0.7121389667
 H -0.7597662577  0.8242939341 -1.7205156082
 H -0.7243379877 -0.9213475275 -1.7780515816
 H -1.9597226792 -0.1894262391 -0.8420307295
10
step 13
 O -0.4543224084 -0.0382381850  1.2553350012
 C  1.4720296377  0.1431690222 -0.1485352862
 C -0.0104480834 -0.0003240098  0.1217012212
 C -0.9137791079 -0.0635123294 -1.1119450506
 H  2.0319827624  0.2055503684  0.8159712087
 H  1.6258780672  1.0269428860 -0.7373516845
 H  1.8032966418 -0.6850787077 -0.7044023523
 H -0.7610380402  0.8235485725 -1.7177997865
 H -0.7150108631 -0.9251044119 -1.7762191587
 H -1.9571996785 -0.1867188995 -0.8378926160
10
step 14
 O -0.4522603280 -0.0377607769  1.2565425164
 C  1.4726911659  0.1477613696 -0.1456112306
 C -0.0091315778 -0.0004573570  0.1240695745
 C -0.9115183962 -0.0664624734 -1.1110446857
 H  2.0313130531  0.2142180300  0.8168239130
 H  1.6253962992  1.0312995244 -0.7344259772
 H  1.8080938687 -0.6801729432 -0.6988215730
 H -0.7630028018  0.8232305007 -1.7149492002
 H -0.7045807164 -0.9275258018 -1.7726352945
 H -1.9546730460 -0.1826607609 -0.8332141309
10
step 15
 O -0.4502492582 -0.0372928910  1.2577963350
 C  1.4734761598  0.1525360843 -0.1423086551
 C -0.0079476952 -0.0006389520  0.1265115415
 C -0.9093371969 -0.0696031555 -1.1103885126
 H  2.0292377161  0.2228331411  0.8147119524
 H  1.6257941895  1.0370070019 -0.7321041206
 H  1.8147232067 -0.6786343050 -0.6954219566
 H -0.7655656974  0.8232528359 -1.7119778964
 H -0.6932459075 -0.9286286124 -1.7673564621
 H -1.9521330801 -0.1774793260 -0.8280927150
10
step 16
 O -0.4482990398 -0.0368363184  1.2591170992
 C  1.4743846264  0.1574643672 -0.1386996941
 C -0.0068835603 -0.0008602336  0.1289948449
 C -0.9072293641 -0.0728933612 -1.1099453744
 H  2.0260295843  0.2314003037  0.8101693724
 H  1.6270019373  1.0439194238 -0.7303419348
 H  1.8229912625 -0.6799868067 -0.6939109333
 H -0.7686180268  0.8235039227 -1.7088949615
 H -0.6811943255 -0.9285899244 -1.7605750848
 H -1.9495693471 -0.1714344620 -0.8226391737
10
step 17
 O -0.4464197164 -0.0363929670  1.2605254338
 C  1.4754181064  0.1624940452 -0.1349083187
 C -0.0059246150 -0.0011113885  0.1314854099
 C -0.9051909286 -0.0762770804 -1.1096722413
 H  2.0221232870  0.2399443266  0.8040190597
 H  1.6289169280  1.0517505781 -0.7290127996
 H  1.8325317106 -0.6833640270 -0.6937429371
 H -0.7720387668  0.8238558560 -1.7057091789
 H -0.6685969065 -0.9277305374 -1.7526047750
 H -1.9469702825 -0.1648116235 -0.8169748692
10
step 18
 O -0.4446210831 -0.0359648049  1.2620409946
 C  1.4765767973  0.1675599650 -0.1310940671
 C -0.0050550770 -0.0013815419  0.1339490029
 C -0.9032202640 -0.0796873418 -1.1095165877
 H  2.0180792761  0.2485082332  0.7973066670
 H  1.6314114951  1.0601129933 -0.7279304388
 H  1.8428676056 -0.6876697285 -0.6942248134
 H -0.7756964240  0.8241750440 -1.7024346256
 H -0.6556044246 -0.9264837748 -1.7438537721
 H -1.9443240019 -0.1579144253 -0.8112283002
10
step 19
 O -0.4429121818 -0.0355537950  1.2636815036
 C  1.4778577260  0.1725949979 -0.1274310818
 C -0.0042584241 -0.0016589758  0.1363529869
 C -0.9013176644 -0.0830517081 -1.1094198379
 H  2.0145246368  0.2571477174  0.7911948710
 H  1.6343426719  1.0685685908 -0.7268790406
 H  1.8534831977 -0.6917526251 -0.6946294198
 H -0.7794514741  0.8243337195 -1.6990962796
 H -0.6423490084 -0.9253488424 -1.7347864536
 H -1.9416206211 -0.1510564908 -0.8055309873
10
step 20
 O -0.4413008011 -0.0351618264  1.2654618323
 C  1.4792556331  0.1775390783 -0.1240849590
 C -0.0035179171 -0.0019313742  0.1386680574
 C -0.8994842537 -0.0862989542 -1.1093217655
 H  2.0120694971  0.2659212164  0.7868172138
 H  1.6375626755  1.0766824447 -0.7256456610
 H  1.8638884296 -0.6945557096 -0.6942922748
 H -0.7831595244  0.8242211209 -1.6957347300
 H -0.6289515198 -0.9248304879 -1.7258748826
 H -1.9388559488 -0.1445526630 -0.8000127953
10
step 21
 O -0.4397930349 -0.0347906552  1.2673931882
 C  1.4807666570  0.1823453615 -0.1211900506
 C -0.0028171390 -0.0021860886  0.1408698101
 C -0.8977203077 -0.0893662720 -1.1091654303
 H  2.0112075766  0.2748757832  0.7851067507
 H  1.6409289095  1.0840720096 -0.7240501700
 H  1.8736675436 -0.6952224981 -0.6926801969
 H -0.7866751829  0.8237530121 -1.6924092143
 H -0.6155346563 -0.9253708479 -1.7175455579
 H -1.9360359212 -0.1387098357 -0.7947970434
10
step 22
 O -0.4383929437 -0.0344418564  1.2694824417
 C  1.4823931464  0.1869837937 -0.1188304141
 C -0.0021404986 -0.0024104199  0.1429400091
 C -0.8960232742 -0.0922059699 -1.1089019438
 H  2.0122215697  0.2840310102  0.7866342930
 H  1.6443125527  1.0904464410 -0.7219691457
 H  1.8825110353 -0.6931612107 -0.6894325444
 H -0.7898565077  0.8228783033 -1.6891983981
 H -0.6022394973 -0.9272838978 -1.7101296796
 H -1.9331807328 -0.1338177757 -0.7899959105
10
step 23
 O -0.4371023348 -0.0341167910  1.2717316202
 C  1.4841469343  0.1914427747 -0.1170279217
 C -0.0014736316 -0.0025919059  0.1448674806
 C -0.8943859706 -0.0947904532 -1.1084942159
 H  2.0151210953  0.2933654604  0.7915019804
 H  1.6476051852  1.0956332301 -0.7193515847
 H  1.8902344942 -0.6880770048 -0.6843812377
 H -0.7925698455  0.8215817982 -1.6861985365
 H -0.5892409892 -0.9307055298 -1.7038265918
 H -1.9303274256 -0.1301403270 -0.7857066755
10
step 24
 O -0.4359206630 -0.0338165834  1.2741375958
 C  1.4860488433  0.1957294730 -0.1157400245
 C -0.0008036434 -0.0027186100  0.1466486040
 C -0.8927954969 -0.0971144519 -1.1079189807
 H  2.0196350432  0.3028106321  0.7993277975
 H  1.6507232087  1.0995914146 -0.7162256430
 H  1.8967885993 -0.6799829955 -0.6775561118
 H -0.7946948531  0.8198825018 -1.6835189053
 H -0.5767568471 -0.9355708294 -1.6986882246
 H -1.9275298142 -0.1279073545 -0.7820092453
10
step 25
 O -0.4348450409 -0.0335421061  1.2766919980
 C  1.4881239593  0.1998691049 -0.1148672184
 C -0.0001191810 -0.0027793974  0.1482874112
 C -0.8912332800 -0.0991940310 -1.1071668151
 H  2.0252614629  0.3122553167  0.8093260307
 H  1.6536099592  1.1024117507 -0.7126965967
 H  1.9022628540 -0.6691964614 -0.6691796237
 H -0.7961294648  0.8178274584 -1.6812746817
 H -0.5650455361 -0.9416241360 -1.6946274131
 H -1.9248550612 -0.1273077390 -0.7789652441
10
step 26
 O -0.4338703483 -0.0332939699  1.2793813812
 C  1.4903942540  0.2039032708 -0.1142676814
 C  0.0005896404 -0.0027641906  0.1497953121
 C -0.8896763594 -0.1010626760 -1.1062403741
 H  2.0313574148  0.3215593335  0.8204550106
 H  1.6562354276  1.1043045823 -0.7089367826
 H  1.9068827938 -0.6563204356 -0.6596513890
 H -0.7967945192  0.8154817255 -1.6795777972
 H -0.5543921753 -0.9484591220 -1.6914468662
 H -1.9223768799 -0.1284837034 -0.7766186893
10
step 27
 O -0.4329894337 -0.0330725213  1.2821876626
 C  1.4928712579  0.2078871754 -0.1137754326
 C  0.0013313991 -0.0026641846  0.1511904737
 C -0.8880996844 -0.1027653941 -1.1051514603
 H  2.0372410696  0.3305725243  0.8315870345
 H  1.6585935259  1.1055762326 -0.7051685839
 H  1.9109973880 -0.6422050034 -0.6495197210
 H -0.7966377065  0.8129157496 -1.6785266492
 H -0.5450849018 -0.9555790355 -1.6888809603
 H -1.9201660709 -0.1315266892 -0.7749980188
10
step 28
 O -0.4321934015 -0.0328778495  1.2850888108
 C  1.4955513053  0.2118852509 -0.1132190350
 C  0.0021135516 -0.0024720082  0.1524968975
 C -0.8864789503 -0.1043520588 -1.1039176628
 H  2.0422822460  0.3391542342  0.8416615523
 H  1.6606970021  1.1065951124 -0.7016417837
 H  1.9150512616 -0.6278790958 -0.6394354520
 H -0.7956364854  0.8101919734 -1.6781958631
 H -0.5373866816 -0.9624642493 -1.6866411360
 H -1.9182797373 -0.1364749102 -0.7741189781
10
step 29
 O -0.4314719720 -0.0327098039  1.2880597295
 C  1.4984147943  0.2159645899 -0.1124393256
 C  0.0029425930 -0.0021818178  0.1537432565
 C -0.8847934417 -0.1058711312 -1.1025591716
 H  2.0459692078  0.3471899064  0.8498013164
 H  1.6625704275  1.1077497280 -0.6986070066
 H  1.9195366180 -0.6144449617 -0.6300842796
 H -0.7937996734  0.8073528054 -1.6786274507
 H -0.5315079099 -0.9686356597 -1.6844572919
 H -1.9167509078 -0.1433125723 -0.7739877023
10
step 30
 O -0.4308138938 -0.0325680226  1.2910732557
 C  1.5014295280  0.2201860332 -0.1113056409
 C  0.0038241691 -0.0017893229  0.1549615692
 C -0.8830284407 -0.1073645449 -1.1010961182
 H  2.0479505603  0.3546034168  0.8553888454
 H  1.6642421050  1.1094023391 -0.6962875496
 H  1.9249239954 -0.6029365043 -0.6220992138
 H -0.7911675325  0.8044119957 -1.6798246344
 H -0.5275838344 -0.9737064885 -1.6821106821
 H -1.9155803687 -0.1519706039 -0.7746032682
10
step 31
 O -0.4302073813 -0.0324519672  1.2941011823
 C  1.5045568769  0.2245939161 -0.1097299500
 C  0.0047631457 -0.0012917510  0.1561857830
 C -0.8811769163 -0.1088641446 -1.0995465581
 H  2.0480571776  0.3613651952  0.8581103113
 H  1.6657361130  1.1118436961 -0.6948525369
 H  1.9315797945 -0.5941594526 -0.6159643496
 H -0.7878103183  0.8013509612 -1.6817492782
 H -0.5256589068 -0.9774193047 -1.6794567724
 H -1.9147322352 -0.1623286556 -0.7759590847
10
step 32
 O -0.4296405394 -0.0323609574  1.2971152301
 C  1.5077585057  0.2292069047 -0.1076775422
 C  0.0057636610 -0.0006877767  0.1574503351
 C -0.8792403610 -0.1103897558 -1.0979250713
 H  2.0463101821  0.3674967008  0.8579756890
 H  1.6670658580  1.1152553643 -0.6943947570
 H  1.9396890326 -0.5885496346 -0.6119314193
 H -0.7838253915  0.7981207813 -1.6843233727
 H -0.5256785839 -0.9796680143 -1.6764383399
 H -1.9141342587 -0.1742181480 -0.7780427126
10
step 33
 O -0.4291017456 -0.0322941993  1.3000879278
 C  1.5110011810  0.2340130118 -0.1051723190
 C  0.0068291865  0.0000225612  0.1587887412
 C -0.8772287426 -0.1119487932 -1.0962419240
 H  2.0429187912  0.3730716282  0.8553204744
 H  1.6682303303  1.1196859315 -0.6949164667
 H  1.9492071510 -0.5860925679 -0.6099740199
 H -0.7793330873  0.7946496207 -1.6874344567
 H -0.5274883120 -0.9805056968 -1.6730896540
 H -1.9136831692 -0.1874262956 -0.7808340429
10
step 34
 O -0.4285799639 -0.0322508031  1.3029933901
 C  1.5142581111  0.2389708754 -0.1022950546
 C  0.0079626182  0.0008379363  0.1602322557
 C -0.8751595909 -0.1135372709 -1.0945027695
 H  2.0382681210  0.3782136563  0.8507882990
 H  1.6692137476  1.1250455793 -0.6963257152
 H  1.9598584423 -0.5863327725 -0.6097953615
 H -0.7744715815  0.7908544543 -1.6909443580
 H -0.5308393634 -0.9801388703 -1.6695322344
 H -1.9132546163 -0.2017012385 -0.7843021460
10
step 35
 O -0.4280649833 -0.0322297946  1.3058080083
 C  1.5175071001  0.2440170255 -0.0991741745
 C  0.0091663969  0.0017558088  0.1618086482
 C -0.8730562803 -0.1151420979 -1.0927089277
 H  2.0328933321  0.3830898968  0.8452877222
 H  1.6699885301  1.1311203075 -0.6984443349
 H  1.9711819479 -0.5884691892 -0.6108867686
 H -0.7693910181  0.7866553305 -1.6947002529
 H -0.5354014605 -0.9789079134 -1.6659620431
 H -1.9127165918 -0.2167585478 -0.7884014380
10
step 36
 O -0.4275475871 -0.0322301214  1.3085110589
 C  1.5207274957  0.2490766839 -0.0959699090
 C  0.0104426442  0.0027725095  0.1635411495
 C -0.8709456203 -0.1167445540 -1.0908583252
 H  2.0274344158  0.3878987721  0.8399129355
 H  1.6705208161  1.1376033611 -0.7010268680
 H  1.9826085640 -0.5915032893 -0.6126171820
 H -0.7642472006  0.7819901272 -1.6985468171
 H -0.5407821738 -0.9772529689 -1.6626276600
 H -1.9119446951 -0.2322893015 -0.7930679888
10
step 37
 O -0.4270196672 -0.0322506601  1.3110852258
 C  1.5238984136  0.2540749931 -0.0928535312
 C  0.0117932865  0.0038833517  0.1654476104
 C -0.8688549482 -0.1183247689 -1.0889471474
 H  2.0225674009  0.3928513253  0.8358204589
 H  1.6707772122  1.1441382060 -0.7037878022
 H  1.9935459030 -0.5943962894 -0.6143282710
 H -0.7591952040  0.7768277912 -1.7023381556
 H -0.5465525133 -0.9756655614 -1.6597995211
 H -1.9108372973 -0.2479696907 -0.7982167982
10
step 38
 O -0.4264742960 -0.0322902257  1.3135170121
 C  1.5269997474  0.2589464208 -0.0899839721
 C  0.0132201482  0.0050827754  0.1675398972
 C -0.8668090254 -0.1198668369 -1.0869721335
 H  2.0189144275  0.3981464200  0.8340653346
 H  1.6707313623  1.1503657445 -0.7064331216
 H  2.0034519131 -0.5962022860 -0.6154157900
 H -0.7543833059  0.7711783534 -1.7059482493
 H -0.5522769173 -0.9746287804 -1.6577319327
 H -1.9093286300 -0.2634717821 -0.8037406849
10
step 39
 O -0.4259057700 -0.0323475853  1.3157970176
 C  1.5300156132  0.2636414097 -0.0874849287
 C  0.0147250061  0.0063645201  0.1698235230
 C -0.8648271317 -0.1213639245 -1.0849332379
 H  2.0169463004  0.4039429933  0.8354203850
 H  1.6703692136  1.1559686982 -0.7086917105
 H  2.0118883467 -0.5961630535 -0.6153885872
 H -0.7499476185  0.7650984698 -1.7092788279
 H -0.5575443671 -0.9745527586 -1.6566220582
 H -1.9073980755 -0.2784747952 -0.8095111451
10
step 40
 O -0.4253096302 -0.0324214732  1.3179200648
 C  1.5329381814  0.2681302724 -0.0854264976
 C  0.0163096184  0.0077218129  0.1722975014
 C -0.8629207899 -0.1228224643 -1.0828361664
 H  2.0169016879  0.4103354407  0.8402223662
 H  1.6696923763  1.1607077830 -0.7103426061
 H  2.0185540672 -0.5937657705 -0.6139054828
 H -0.7460077209  0.7586917568 -1.7122638634
 H -0.5619963375 -0.9757158522 -1.6565725325
 H -1.9050744200 -0.2926761405 -0.8153812246
10
step 41
 O -0.4246826625 -0.0325106066  1.3198851775
 C  1.5357693098  0.2724047025 -0.0838153271
 C  0.0179757459  0.0091475594  0.1749544049
 C -0.8610924845 -0.1242644677 -1.0806941775
 H  2.0187486794  0.4173392399  0.8482939827
 H  1.6687194772  1.1644465825 -0.7112352154
 H  2.0233027351 -0.5887723002 -0.6107944982
 H -0.7426634661  0.7521036992 -1.7148702163
 H -0.5653474111 -0.9782233385 -1.6575654456
 H -1.9024344570 -0.3058015283 -0.8211901928
10
step 42
 O -0.4240228784 -0.0326137019  1.3216954327
 C  1.5385184245  0.2764773834 -0.0825953988
 C  0.0197251786  0.0106345305  0.1777806165
 C -0.8593355661 -0.1257272464 -1.0785286324
 H  2.0222021077  0.4248914338  0.8589702709
 H  1.6674857120  1.1671640347 -0.7113009626
 H  2.0261498238 -0.5812289266 -0.6060592883
 H -0.7399930089  0.7455114322 -1.7170943608
 H -0.5673958642 -0.9819929992 -1.6594540536
 H -1.8995959956 -0.3176135968 -0.8267696304
10
step 43
 O -0.4233294748 -0.0327294928  1.3233577115
 C  1.5411970554  0.2803801974 -0.0816584089
 C  0.0215597577  0.0121755457  0.1807567731
 C -0.8576353012 -0.1272603930 -1.0763680764
 H  2.0267893931  0.4328654396  0.8712199402
 H  1.6660408762  1.1689547229 -0.7105560107
 H  2.0272717324 -0.5714615817 -0.5998757028
 H -0.7380520091  0.7391092429 -1.7189555276
 H -0.5680238730 -0.9867708467 -1.6619746933
 H -1.8967059583 -0.3279186453 -0.8319504243
10
step 44
 O -0.4226027674 -0.0328567525  1.3248823674
 C  1.5438120781  0.2841614245 -0.0808602074
 C  0.0234813692  0.0137636490  0.1838583898
 C -0.8559708182 -0.1289205376 -1.0742460299
 H  2.0319416424  0.4410949609  0.8838203675
 H  1.6644461228  1.1700177232 -0.7090954672
 H  2.0269965317 -0.5600561675 -0.5925785506
 H -0.7368738937  0.7330912002 -1.7204860331
 H -0.5671892344 -0.9921727746 -1.6647764009
 H -1.8939247941 -0.3365711504 -0.8365700790
10
step 45
 O -0.4218440957 -0.0329943140  1.3262828211
 C  1.5463601690  0.2878819832 -0.0800392872
 C  0.0254918740  0.0153922688  0.1870566436
 C -0.8543175774 -0.1307648896 -1.0721979709
 H  2.0370841096  0.4494002186  0.8955370616
 H  1.6627696892  1.1706349994 -0.7070799273
 H  2.0257829023 -0.5478186003 -0.5846359645
 H -0.7364709867  0.7276328297 -1.7217200061
 H -0.5649117748 -0.9977422568 -1.6674618050
 H -1.8914088302 -0.3434758788 -0.8404797250
10
step 46
 O -0.4210557002 -0.0331410875  1.3275750847
 C  1.5488253401  0.2916103506 -0.0790346277
 C  0.0275929477  0.0170553527  0.1903192870
 C -0.8526499872 -0.1328447173 -1.0702580884
 H  2.0417088061  0.4576113280  0.9052727341
 H  1.6610819068  1.1711407432 -0.7047155690
 H  2.0241823055 -0.5357065889 -0.5766073161
 H -0.7368362132  0.7228740742 -1.7226821121
 H -0.5612576600 -1.0030124404 -1.6696314338
 H -1.8892924189 -0.3485876616 -0.8435502612
10
step 47
 O -0.4202405766 -0.0332960757  1.3287772150
 C  1.5511802796  0.2954156412 -0.0777018975
 C  0.0297858206  0.0187474683  0.1936116656
 C -0.8509438658 -0.1351997201 -1.0684562761
 H  2.0454237757  0.4655864991  0.9121728294
 H  1.6594499201  1.1718838721 -0.7022294800
 H  2.0227807410 -0.5247272099 -0.5690818182
 H -0.7379450082  0.7189057415 -1.7233780700
 H -0.5563240056 -1.0075628815 -1.6709246725
 H -1.8876717670 -0.3519092240 -0.8456772155
10
step 48
 O -0.4194023130 -0.0334583836  1.3299086986
 C  1.5533910277  0.2993587699 -0.0759279301
 C  0.0320709276  0.0204638634  0.1968978024
 C -0.8491785387 -0.1378538600 -1.0668156215
 H  2.0479818867  0.4732250227  0.9156907420
 H  1.6579326426  1.1731870964 -0.6998425288
 H  2.0221218164 -0.5158032465 -0.5625999908
 H -0.7397570453  0.7157612047 -1.7237886092
 H -0.5502251380 -1.0110649725 -1.6710530878
 H -1.8865921771 -0.3534877511 -0.8467841000
10
step 49
 O -0.4185449098 -0.0336272190  1.3309897770
 C  1.5554234653  0.3034827225 -0.0736431695
 C  0.0344475029  0.0222004741  0.2001415149
 C -0.8473384488 -0.1408128406 -1.0653504597
 H  2.0492951697  0.4804760405  0.9156227685
 H  1.6565765031  1.1753072194 -0.6977427598
 H  2.0226219608 -0.5096265556 -0.5575687613
 H -0.7422174916  0.7134143430 -1.7238680206
 H -0.5430810176 -1.0133137970 -1.6698243463
 H -1.8860401051 -0.3534110117 -0.8468242168
10
step 50
 O -0.4176725817 -0.0338018793  1.3320407249
 C  1.5572494059  0.3078042228 -0.0708309352
 C  0.0369131628  0.0239538765  0.2033075358
 C -0.8454141963 -0.1440631662 -1.0640649663
 H  2.0494399503  0.4873440477  0.9121218638
 H  1.6554124585  1.1784021153 -0.6960627162
 H  2.0244976915 -0.5065322029 -0.5541894945
 H -0.7452576844  0.7117837966 -1.7235476988
 H -0.5350079008 -1.0142465009 -1.6671566015
 H -1.8859409861 -0.3518037676 -0.8457809954
10
step 51
 O -0.4167895333 -0.0339817265  1.3330811006
 C  1.5588501685  0.3123095641 -0.0675317033
 C  0.0394635292  0.0257211904  0.2063626297
 C -0.8434029502 -0.1475726314 -1.0629522817
 H  2.0486550209  0.4938913559  0.9056937663
 H  1.6544545774  1.1825096488 -0.6948640147
 H  2.0277272154 -0.5064315086 -0.5524204019
 H -0.7487953558  0.7107427604 -1.7227442339
 H -0.5261112542 -1.0139480069 -1.6630837644
 H -1.8861632468 -0.3488248811 -0.8436669814
10
step 52
 O -0.4158997087 -0.0341661543  1.3341289936
 C  1.5602166397  0.3169563703 -0.0638407643
 C  0.0420919425  0.0274999577  0.2092767048
 C -0.8413081750 -0.1512921317 -1.0619942378
 H  2.0473311857  0.5002366869  0.8971718373
 H  1.6537002907  1.1875423687 -0.6941317426
 H  2.0320597129 -0.5088274332 -0.5519861932
 H -0.7527347410  0.7101329425 -1.7213708826
 H -0.5164811773 -1.0126444704 -1.6577517962
 H -1.8865283284 -0.3446650727 -0.8405215563
10
step 53
 O -0.4150065191 -0.0343545521  1.3352003116
 C  1.5613466120  0.3216809559 -0.0598985591
 C  0.0447892922  0.0292880152  0.2120238912
 C -0.8391386289 -0.1551587610 -1.0611618421
 H  2.0459868014  0.5065479487  0.8876605342
 H  1.6531321877  1.1932992709 -0.6937798018
 H  2.0370687605 -0.5129071223 -0.5524316588
 H -0.7569670042  0.7097809830 -1.7193507687
 H -0.5061909981 -1.0106840653 -1.6514056233
 H -1.8868259342 -0.3395448531 -0.8364074359
10
step 54
 O -0.4141125663 -0.0345462639  1.3363081589
 C  1.5622416201  0.3264091024 -0.0558741606
 C  0.0475439712  0.0310833763  0.2145835266
 C -0.8369066237 -0.1591001784 -1.0604166909
 H  2.0452219661  0.5130265649  0.8784350283
 H  1.6527210386  1.1994927996 -0.6936664464
 H  2.0422316228 -0.5176809284 -0.5532016589
 H -0.7613713742  0.7095155518 -1.7166300183
 H -0.4953000503 -1.0085044096 -1.6443661436
 H -1.8868331113 -0.3337119396 -0.8314060329
10
step 55
 O -0.4132193878 -0.0347405475  1.3374623519
 C  1.5629056935  0.3310675392 -0.0519434109
 C  0.0503419324  0.0328841254  0.2169409630
 C -0.8346256070 -0.1630401257 -1.0597134021
 H  2.0456460809  0.5198813117  0.8707903128
 H  1.6524295762  1.2057864398 -0.6936174076
 H  2.0470118308 -0.5221290807 -0.5537255619
 H -0.7658172305  0.7091834306 -1.7131891722
 H -0.4838616265 -1.0065868831 -1.6369975858
 H -1.8863352739 -0.3274375267 -0.8256118934
10
step 56
 O -0.4123272557 -0.0349365351  1.3386691017
 C  1.5633472384  0.3355940729 -0.0482643574
 C  0.0531668223  0.0346883209  0.2190881147
 C -0.8323072319 -0.1669047465 -1.0590029642
 H  2.0477817073  0.5272924159  0.8658502663
 H  1.6522165311  1.2118366051 -0.6934527012
 H  2.0509283632 -0.5253265605 -0.5534894413
 H -0.7701671836  0.7086630868 -1.7090515632
 H -0.4719364025 -1.0054005541 -1.6296673671
 H -1.8851469667 -0.3210110419 -0.8191265882
10
step 57
 O -0.4114350548 -0.0351331994  1.3399308745
 C  1.5635832563  0.3399452717 -0.0449540219
 C  0.0560001756  0.0364938981  0.2210236929
 C -0.8299582296 -0.1706290470 -1.0582366376
 H  2.0519611584  0.5353717063  0.8643723283
 H  1.6520404857  1.2173325139 -0.6930128295
 H  2.0536046294 -0.5265333146 -0.5520884930
 H -0.7742810325  0.7078745021 -1.7042877740
 H -0.4596100906 -1.0053419452 -1.6227031399
 H -1.8831301282 -0.3147333507 -0.8120526024
10
step 58
 O -0.4105402517 -0.0353293278  1.3412464228
 C  1.5636433735  0.3441012295 -0.0420714843
 C  0.0588216846  0.0382985702  0.2227531238
 C -0.8275775437 -0.1741625788 -1.0573698190
 H  2.0582444713  0.5441296607  0.8666029012
 H  1.6518632633  1.2220291239 -0.6921806617
 H  2.0547983701 -0.5252505758 -0.5492596597
 H -0.7780203910  0.7067842991 -1.6990157000
 H -0.4470120282 -1.0066801574 -1.6163539343
 H -1.8802078252 -0.3089086415 -0.8044878514
10
step 59
 O -0.4096389572 -0.0355235058  1.3426109744
 C  1.5635708052  0.3480672732 -0.0396114216
 C  0.0616095872  0.0400997398  0.2242881860
 C -0.8251542844 -0.1774733495 -1.0563651927
 H  2.0663878749  0.5534611122  0.8722337685
 H  1.6516527010  1.2257702411 -0.6908965304
 H  2.0544171717 -0.5212506142 -0.5448981653
 H -0.7812537534  0.7054055215 -1.6933960636
 H -0.4343297038 -1.0095181346 -1.6107628900
 H -1.8763718277 -0.3038353704 -0.7965214433
10
step 60
 O -0.4087260754 -0.0357141151  1.3440165706
 C  1.5634187679  0.3518728513 -0.0375091608
 C  0.0643412196  0.0418944419  0.2256464199
 C -0.8226670240 -0.1805492027 -1.0551946282
 H  2.0758756337  0.5631556990  0.8804753578
 H  1.6513847090  1.2285008065 -0.6891655394
 H  2.0525240966 -0.5145874656 -0.5390620383
 H -0.7838617660  0.7037917909 -1.6876235045
 H -0.4218140110 -1.0137786998 -1.6059571922
 H -1.8716829123 -0.2997967092 -0.7882312040
10
step 61
 O -0.4077955263 -0.0358993496  1.3454525472
 C  1.5632431541  0.3555682563 -0.0356545753
 C  0.0669937510  0.0436793394  0.2268503484
 C -0.8200847462 -0.1833964112 -1.0538396054
 H  2.0860037119  0.5729295994  0.8902179509
 H  1.6510445015  1.2302686111 -0.6870572699
 H  2.0493355400 -0.5055925848 -0.5319670276
 H -0.7857424348  0.7020260749 -1.6819136997
 H -0.4097718775 -1.0192185626 -1.6018568092
 H -1.8662634271 -0.2970509755 -0.7796833192
10
step 62
 O -0.4068405281 -0.0360772512  1.3469061487
 C  1.5630939786  0.3592199528 -0.0339101292
 C  0.0695450663  0.0454507784  0.2279265416
 C -0.8173694322 -0.1860358426 -1.0522903243
 H  2.0959870197  0.5824679802  0.9002259958
 H  1.6506268665  1.2312162480 -0.6846987446
 H  2.0452103391 -0.4948543502 -0.5239718046
 H -0.7868159456  0.7002049858 -1.6764874195
 H -0.3985463127 -1.0254667565 -1.5982990126
 H -1.8602824592 -0.2958225493 -0.7709342270
10
step 63
 O -0.4058539236 -0.0362457623  1.3483632514
 C  1.5630083663  0.3629049319 -0.0321289631
 C  0.0719747145  0.0472048931  0.2289045570
 C -0.8144799150 -0.1884975498 -1.0505439253
 H  2.1050616776  0.5914667683  0.9093153132
 H  1.6501353908  1.2315643194 -0.6822617215
 H  2.0406265645 -0.4831758591 -0.5155510115
 H -0.7870287256  0.6984203382 -1.6715529601
 H -0.3884873270 -1.0320787029 -1.5950723867
 H -1.8539349186 -0.2962937646 -0.7620346130
10
step 64
 O -0.4048285330 -0.0364027919  1.3498091535
 C  1.5630069598  0.3667039502 -0.0301709863
 C  0.0742648236  0.0489377430  0.2298158038
 C -0.8113764055 -0.1908148449 -1.0486023187
 H  2.1125651911  0.5996664950  0.9164864001
 H  1.6495806863  1.2315871401 -0.6799454048
 H  2.0361414243 -0.4715034925 -0.5072526551
 H -0.7863563936  0.6967404360 -1.6672888749
 H -0.3799191351 -1.0385952143 -1.5919531917
 H -1.8474168759 -0.2985981802 -0.7530350177
10
step 65