13
step 0
 O -0.9519706196  1.6939249768 -0.2447853435
 O -0.4068566685  1.0110212516  1.8543366840
 N -0.8849150229 -0.7238881182 -1.2648712891
 C -0.1732038612 -0.6421809030  0.0425072719
 C -0.5217850097  0.7523104455  0.6718891651
 C  1.3539655699 -0.7515626220 -0.1679152760
 H -0.4071964166 -1.4130461046 -1.8636428001
 H -0.4918077429 -1.4220139967  0.7407845464
 H -1.0188586801  1.1750783901 -1.0867815058
 H  1.6984853686  0.0116616642 -0.8595610261
 H  1.6110163721 -1.7270802943 -0.5712569685
 H  1.8684681006 -0.6225092381  0.7793135276
 H -1.8273413904 -1.1097154681 -1.1020169995
13
step 1
 O -0.9518794751  1.6959624102 -0.2435322852
 O -0.4089932556  1.0170639136  1.8587290428
 N -0.8843788835 -0.7218326155 -1.2643658876
 C -0.1718611775 -0.6428112359  0.0448178542
 C -0.5256433694  0.7562230293  0.6710546872
 C  1.3502948479 -0.7475527675 -0.1684879580
 H -0.4054930333 -1.4158806562 -1.8661204883
 H -0.4869778891 -1.4245513472  0.7403278292
 H -1.0295031412  1.1804703825 -1.0861722676
 H  1.6995079543 -0.0003155898 -0.8623870069
 H  1.6134383141 -1.7274785439 -0.5778307794
 H  1.8686627127 -0.6256854909  0.7820130974
 H -1.8191736050 -1.1116115057 -1.1000458515
13
step 2
 O -0.9517984422  1.6980304495 -0.2422832317
 O -0.4111528148  1.0231258164  1.8630638796
 N -0.8837711305 -0.7197885240 -1.2638866214
 C -0.1705432805 -0.6434003876  0.0471149083
 C -0.5294922241  0.7601380888  0.6703440057
 C  1.3466628180 -0.7436580067 -0.1690223208
 H -0.4040479630 -1.4182165678 -1.8681898422
 H -0.4822049531 -1.4271533322  0.7399831572
 H -1.0401412649  1.1857900513 -1.0855585581
 H  1.7007040675 -0.0114687248 -0.8656553225
 H  1.6155406706 -1.7272554847 -0.5840207492
 H  1.8686873304 -0.6288059542  0.7843107909
 H -1.8116902815 -1.1137588339 -1.0979522747
13
step 3
 O -0.9517384322  1.7001473832 -0.2410512498
 O -0.4133452301  1.0291903598  1.8672615649
 N -0.8830339442 -0.7177770682 -1.2634564669
 C -0.1692838953 -0.6439051973  0.0493727920
 C -0.5332981064  0.7640325514  0.6698798178
 C  1.3431284988 -0.7400022981 -0.1694813194
 H -0.4030741554 -1.4196115241 -1.8694984059
 H -0.4775698349 -1.4298589145  0.7398528609
 H -1.0507057855  1.1909475982 -1.0849240199
 H  1.7022225111 -0.0209819026 -0.8697421653
 H  1.6170162663 -1.7258957114 -0.5894454047
 H  1.8683915893 -0.6317884356  0.7858345320
 H -1.8055359455 -1.1163630087 -1.0956410295
13
step 4
 O -0.9517100804  1.7023302034 -0.2398502745
 O -0.4155797415  1.0352423841  1.8712499266
 N -0.8821301655 -0.7158156605 -1.2630881198
 C -0.1681169076 -0.6442853927  0.0515689345
 C -0.5370291910  0.7678827794  0.6697738303
 C  1.3397481919 -0.7366813131 -0.1698403206
 H -0.4026971406 -1.4197511411 -1.8698041286
 H -0.4731443438 -1.4326850732  0.7400159168
 H -1.0611287180  1.1958703672 -1.0842294533
 H  1.7041503828 -0.0282132886 -0.8748929511
 H  1.6176065817 -1.7230503515 -0.5937963523
 H  1.8676690425 -0.6345423228  0.7862982995
 H -1.8011592689 -1.1195538711 -1.0930522595
13
step 5
 O -0.9517235179  1.7045941376 -0.2386943841
 O -0.4178647261  1.0412685192  1.8749660488
 N -0.8810501794 -0.7139179221 -1.2627810445
 C -0.1670758827 -0.6445048867  0.0536852357
 C -0.5406560699  0.7716651157  0.6701232483
 C  1.3365751085 -0.7337533312 -0.1700935775
 H -0.4029350310 -1.4184825228 -1.8690022058
 H -0.4689878487 -1.4356179422  0.7405191544
 H -1.0713412589  1.2005022307 -1.0834142688
 H  1.7064776248 -0.0327655820 -0.8811549730
 H  1.6171190041 -1.7185718134 -0.5968608785
 H  1.8664727834 -0.6369697050  0.7855323608
 H -1.7987379428 -1.1233499268 -1.0901775557
13
step 6
 O -0.9517881115  1.7069523037 -0.2375968465
 O -0.4202075083  1.0472573837  1.8783575310
 N -0.8798142538 -0.7120936933 -1.2625202975
 C -0.1661934731 -0.6445326710  0.0557090074
 C -0.5441524123  0.7753565267  0.6710080139
 C  1.3336585557 -0.7312350659 -0.1702574080
 H -0.4036920129 -1.4158283035 -1.8671353975
 H -0.4651454337 -1.4386079188  0.7413722272
 H -1.0812741958  1.2048006557 -1.0824022219
 H  1.7090786414 -0.0345174409 -0.8883444681
 H  1.6154383902 -1.7125282789 -0.5985360389
 H  1.8648245686 -0.6389678670  0.7835007884
 H -1.7981528003 -1.1276427983 -1.0870674474
13
step 7
 O -0.9519121733  1.7094154649 -0.2365690148
 O -0.4226141990  1.0531996816  1.8813833168
 N -0.8784698699 -0.7103486582 -1.2622772265
 C -0.1655006754 -0.6443432050  0.0576333771
 C -0.5474955272  0.7789352923  0.6724887001
 C  1.3310421222 -0.7291026962 -0.1703690110
 H -0.4047648561 -1.4119813868 -1.8643883281
 H -0.4616477455 -1.4415696676  0.7425470039
 H -1.0908589800  1.2087322257 -1.0811104259
 H  1.7117176373 -0.0336099269 -0.8960590264
 H  1.6125331620 -1.7052010000 -0.5988349650
 H  1.8628169053 -0.6404326923  0.7803053136
 H -1.7990179706 -1.1322068231 -1.0838282022
13
step 8
 O -0.9521026371  1.7119918773 -0.2356192072
 O -0.4250895696  1.0590882389  1.8840142383
 N -0.8770847534 -0.7086837570 -1.2620120065
 C -0.1650259702 -0.6439162938  0.0594571420
 C -0.5506668060  0.7823817138  0.6746049690
 C  1.3287610274 -0.7272974293 -0.1704811787
 H -0.4058621790 -1.4072801238 -1.8610657500
 H -0.4585125017 -1.4443870839  0.7439814999
 H -1.1000299905  1.2122672615 -1.0794599808
 H  1.7140766685 -0.0303949611 -0.9037321466
 H  1.6084557038 -1.6970656254 -0.5978851994
 H  1.8606076977 -0.6412626539  0.7761752537
 H -1.8007575841 -1.1367314583 -1.0806087561
13
step 9
 O -0.9523648076  1.7146872709 -0.2347517711
 O -0.4276369666  1.0649180335  1.8862333306
 N -0.8757371326 -0.7070950064 -1.2616778289
 C -0.1647943430 -0.6432365785  0.0611841797
 C -0.5536520445  0.7856786949  0.6773746904
 C  1.3268393900 -0.7257342837 -0.1706543103
 H -0.4066363008 -1.4021637370 -1.8575545091
 H -0.4557473465 -1.4469225950  0.7455877106
 H -1.1087268168  1.2153747664 -1.0773865886
 H  1.7157985387 -0.0253619345 -0.9107146841
 H  1.6033363090 -1.6887566566 -0.5959178686
 H  1.8584073748 -0.6413633974  0.7714435769
 H -1.8027083432 -1.1408678609 -1.0775811349
13
step 10
 O -0.9527021594  1.7175048044 -0.2339663506
 O -0.4302582573  1.0706862364  1.8880359697
 N -0.8745049547 -0.7055743637 -1.2612263506
 C -0.1648263086 -0.6422926880  0.0628225977
 C -0.5564416977  0.7888122155  0.6807934652
 C  1.3252884603 -0.7243128327 -0.1709476470
 H -0.4067265785 -1.3971095683 -1.8542703107
 H -0.4533535225 -1.4490295297  0.7472621646
 H -1.1168962797  1.2180189217 -1.0748494077
 H  1.7165336646 -0.0190599586 -0.9163632090
 H  1.5973696161 -1.6810124548 -0.5932458664
 H  1.8564587881 -0.6406528708  0.7665100134
 H -1.8042250888 -1.1442791405 -1.0749187154
13
step 11
 O -0.9531162054  1.7204450487 -0.2332575193
 O -0.4329538057  1.0763922305  1.8894298868
 N -0.8734556319 -0.7041118170 -1.2606138150
 C -0.1651370655 -0.6410762587  0.0643837121
 C -0.5590309647  0.7917716480  0.6848346025
 C  1.3241066325 -0.7229289726 -0.1714114042
 H -0.4058102708 -1.3925580663 -1.8515942058
 H -0.4513299195 -1.4505657677  0.7488979418
 H -1.1244947027  1.2201571961 -1.0718365922
 H  1.7159818631 -0.0120283121 -0.9201190996
 H  1.5907932041 -1.6745994362 -0.5902300211
 H  1.8550109336 -0.6390669393  0.7617938603
 H -1.8047719345 -1.1466856183 -1.0727759893
13
step 12
 O -0.9536064912  1.7235059899 -0.2326148705
 O -0.4357224632  1.0820376123  1.8904350296
 N -0.8726374495 -0.7026982535 -1.2598069896
 C -0.1657358343 -0.6395809861  0.0658809997
 C -0.5614197491  0.7945498204  0.6894496140
 C  1.3232813413 -0.7214870146 -0.1720807971
 H -0.4036538180 -1.3888370557 -1.8498082467
 H -0.4496769475 -1.4514071314  0.7503966468
 H -1.1314892313  1.2217408133 -1.0683667698
 H  1.7139241345 -0.0047409145 -0.9215697030
 H  1.5838597655 -1.6702180801 -0.5872348503
 H  1.8542890803 -0.6365652708  0.7576810502
 H -1.8039903052 -1.1478999155 -1.0712722299
13
step 13
 O -0.9541707230  1.7266829799 -0.2320235468
 O -0.4385615683  1.0876261506  1.8910832522
 N -0.8720735058 -0.7013281197 -1.2587878291
 C -0.1666254464 -0.6378018083  0.0673291039
 C -0.5636124837  0.7971428772  0.6945691745
 C  1.3227922790 -0.7199112664 -0.1729722628
 H -0.4001545355 -1.3861011843 -1.8490436639
 H -0.4483998223 -1.4514590816  0.7516790692
 H -1.1378578444  1.2227178051 -1.0644862043
 H  1.7102432915  0.0024345874 -0.9204895176
 H  1.5768068316 -1.6684006723 -0.5845794436
 H  1.8544652255 -0.6331369307  0.7544724790
 H -1.8017415330 -1.1478498605 -1.0704803236
13
step 14
 O -0.9548050143  1.7299686281 -0.2314651658
 O -0.4414669646  1.0931636840  1.8914177922
 N -0.8717588532 -0.7000007955 -1.2575558527
 C -0.1678022017 -0.6357343250  0.0687429427
 C -0.5656178097  0.7995499955  0.7001045677
 C  1.3226148797 -0.7181557893 -0.1740816635
 H -0.3953626423 -1.3843019542 -1.8492546989
 H -0.4475109759 -1.4506656137  0.7526935627
 H -1.1435882472  1.2230384008 -1.0602619859
 H  1.7049344950  0.0092648359 -0.9168630526
 H  1.5698302738 -1.6694188311 -0.5824929562
 H  1.8556337225 -0.6288048810  0.7523420802
 H -1.7981245126 -1.1465888981 -1.0704212303
13
step 15
 O -0.9555042302  1.7333526550 -0.2309190483
 O -0.4444330516  1.0986579500  1.8914924590
 N -0.8716612353 -0.6987200919 -1.2561276669
 C -0.1692559782 -0.6333745200  0.0701369663
 C -0.5674481212  0.8017730293  0.7059497019
 C  1.3227229577 -0.7162106680 -0.1753840491
 H -0.3894775391 -1.3831967407 -1.8502254482
 H -0.4470313748 -1.4490146251  0.7534214704
 H -1.1486758198  1.2226622600 -1.0557722808
 H  1.6981070739  0.0156673569 -0.9108914816
 H  1.5630680709 -1.6732228419 -0.5810855823
 H  1.8577967685 -0.6236284479  0.7513125429
 H -1.7934687506 -1.1442937922 -1.0710643166
13
step 16
 O -0.9562623977  1.7368217519 -0.2303636113
 O -0.4474528938  1.1041183474  1.8913704337
 N -0.8717254606 -0.6974921107 -1.2545337452
 C -0.1709705776 -0.6307188190  0.0715246154
 C -0.5691189926  0.8038161711  0.7119838042
 C  1.3230898236 -0.7141033261 -0.1768347055
 H -0.3828189384 -1.3823941887 -1.8516078680
 H -0.4469906128 -1.4465392983  0.7538792174
 H -1.1531209667  1.2215667158 -1.0510952316
 H  1.6899781300  0.0217153333 -0.9029835654
 H  1.5565982333 -1.6794305173 -0.5803427948
 H  1.8608628412 -0.6177029562  0.7512536192
 H -1.7883015159 -1.1412488046 -1.0723338180
13
step 17
 O -0.9570731395  1.7403595040 -0.2297777623
 O -0.4505184133  1.1095556228  1.8911225797
 N -0.8718810648 -0.6963224142 -1.2528132051
 C -0.1729242933 -0.6277644853  0.0729180334
 C -0.5706485018  0.8056857195  0.7180749024
 C  1.3236879445 -0.7118942547 -0.1783715848
 H -0.3757798017 -1.3814236732 -1.8529808294
 H -0.4474257207 -1.4433152631  0.7541169316
 H -1.1569263737  1.2197548996 -1.0462984545
 H  1.6808572778  0.0276277580 -0.8937291363
 H  1.5504501593 -1.6873706502 -0.5801437381
 H  1.8646585175 -0.6111561630  0.7519032946
 H -1.7832870352 -1.1378153298 -1.0741215088
13
step 18
 O -0.9579300842  1.7439464433 -0.2291421241
 O -0.4536206770  1.1149814631  1.8908251853
 N -0.8720525327 -0.6952136548 -1.2510076453
 C -0.1750906966 -0.6245103198  0.0743280698
 C -0.5720564671  0.8073900252  0.7240841422
 C  1.3244878754 -0.7096676355 -0.1799195156
 H -0.3687712614 -1.3798124505 -1.8539165081
 H -0.4483787292 -1.4394535690  0.7542136905
 H -1.1600947387  1.2172624523 -1.0414311228
 H  1.6711213545  0.0337404647 -0.8838523117
 H  1.5446244544 -1.6961707421 -0.5802973060
 H  1.8689512943 -0.6041417308  0.7529073130
 H -1.7791379652 -1.1343872560 -1.0763049080
13
step 19
 O -0.9588272035  1.7475602772 -0.2284399512
 O -0.4567502719  1.1204079632  1.8905571198
 N -0.8721709155 -0.6941644381 -1.2491550925
 C -0.1774396170 -0.6209576045  0.0757645685
 C -0.5733636192  0.8089396629  0.7298708952
 C  1.3254574274 -0.7075182300 -0.1813965412
 H -0.3621691842 -1.3771561979 -1.8540419568
 H -0.4498931385 -1.4350898592  0.7542697402
 H -1.1626274820  1.2141615987 -1.0365202708
 H  1.6611788536  0.0404540244 -0.8741430053
 H  1.5391145634 -1.7048682128 -0.5805853982
 H  1.8734790496 -0.5968305277  0.7538693314
 H -1.7765059128 -1.1313357040 -1.0787688682
13
step 20
 O -0.9597590408  1.7511763162 -0.2276576493
 O -0.4598977410  1.1258469421  1.8903964669
 N -0.8721851904 -0.6931694653 -1.2472849023
 C -0.1799382688 -0.6171111951  0.0772368778
 C -0.5745907372  0.8103478418  0.7352984834
 C  1.3265617399 -0.7055363583 -0.1827222055
 H -0.3562691699 -1.3731740158 -1.8530881663
 H -0.4520095683 -1.4303706060  0.7543963469
 H -1.1645247580  1.2105616838 -1.0315722131
 H  1.6514265002  0.0481586196 -0.8653700799
 H  1.5339247906 -1.7125228263 -0.5808034813
 H  1.8779811834 -0.5894008329  0.7544031734
 H -1.7758673838 -1.1289516100 -1.0814265575
13
step 21
 O -0.9607208114  1.7547680911 -0.2267848815
 O -0.4630540389  1.1313091000  1.8904167926
 N -0.8720713235 -0.6922203517 -1.2454142048
 C -0.1825524425 -0.6129806429  0.0787544555
 C -0.5757577888  0.8116310366  0.7402402363
 C  1.3277642835 -0.7037929790 -0.1838267627
 H -0.3512536354 -1.3677442301 -1.8509233665
 H -0.4547609730 -1.4254377652  0.7547042687
 H -1.1657868180  1.2066058135 -1.0265789923
 H  1.6422041992  0.0571441162 -0.8581869831
 H  1.5290820382 -1.7183139337 -0.5807923773
 H  1.8822271611 -0.5820284838  0.7541799652
 H -1.7774297696 -1.1273985847 -1.0842346832
13
step 22
 O -0.9617083832  1.7583081250 -0.2258143155
 O -0.4662109619  1.1368030510  1.8906832920
 N -0.8718370954 -0.6913062789 -1.2435462362
 C -0.1852476645 -0.6085812013  0.0803274105
 C -0.5768831247  0.8128097744  0.7445855065
 C  1.3290281987 -0.7023269957 -0.1846595303
 H -0.3471725450 -1.3609204906 -1.8475699683
 H -0.4581678809 -1.4204136117  0.7552921469
 H -1.1664164785  1.2024638685 -1.0215287898
 H  1.6337576963  0.0675132129 -0.8530478550
 H  1.5246411567 -1.7216145391 -0.5804594828
 H  1.8860395604 -0.5748777300  0.7529653328
 H -1.7810826147 -1.1266884836 -1.0871984856
13
step 23
 O -0.9627181714  1.7617688028 -0.2247411191
 O -0.4693615166  1.1423343186  1.8912491353
 N -0.8715215381 -0.6904139543 -1.2416706662
 C -0.1879902397 -0.6039345658  0.0819668300
 C -0.5779827791  0.8139094765  0.7482452060
 C  1.3303171508 -0.7011368474 -0.1851943997
 H -0.3439386769 -1.3529285237 -1.8432050906
 H -0.4622341352 -1.4153876799  0.7562362982
 H -1.1664221613  1.1983227333 -1.0164185181
 H  1.6262182418  0.0791213099 -0.8501541417
 H  1.5206852206 -1.7220408974 -0.5797904976
 H  1.8893101317 -0.5680932270  0.7506442296
 H -1.7864090801 -1.1266866769 -1.0903648723
13
step 24
 O -0.9637469963  1.7651233323 -0.2235623858
 O -0.4725001992  1.1479044142  1.8921523432
 N -0.8711891026 -0.6895270283 -1.2397658267
 C -0.1907480988 -0.5990692260  0.0836847693
 C -0.5790699134  0.8149611706  0.7511565156
 C  1.3315951558 -0.7001778560 -0.1854311106
 H -0.3413385953 -1.3441433469 -1.8381439807
 H -0.4669436543 -1.4104075840  0.7575833811
 H -1.1658210003  1.1943748334 -1.0112663000
 H  1.6196042228  0.0915630451 -0.8494454199
 H  1.5173223480 -1.7194795780 -0.5788537258
 H  1.8920083741 -0.5617934363  0.7472326274
 H -1.7927547449 -1.1271449901 -1.0938058414
13
step 25
 O -0.9647919174  1.7683466552 -0.2222765068
 O -0.4756231744  1.1535100989  1.8934134598
 N -0.8709198418 -0.6886257040 -1.2378025288
 C -0.1934914123 -0.5940202752  0.0854939131
 C -0.5801544670  0.8160019916  0.7532861569
 C  1.3328254069 -0.6993655966 -0.1853921453
 H -0.3390608294 -1.3350464146 -1.8328052651
 H -0.4722586026 -1.4054750423  0.7593468851
 H -1.1646413914  1.1908066732 -1.0061216102
 H  1.6138427774  0.1042113854 -0.8506347924
 H  1.5146803499 -1.7140938859 -0.5777984309
 H  1.8941826233 -0.5560658018  0.7428762113
 H -1.7993344907 -1.1277523992 -1.0975972139
13
step 26
 O -0.9658501403  1.7714162950 -0.2208827116
 O -0.4787283229  1.1591429945  1.8950344285
 N -0.8707974436 -0.6876872647 -1.2357492720
 C -0.1961930123 -0.5888287440  0.0874069279
 C -0.5812430314  0.8170752588  0.7546320050
 C  1.3339688891 -0.6985844438 -0.1851163679
 H -0.3367416099 -1.3261639633 -1.8276574295
 H -0.4781191535 -1.4005476980  0.7615082590
 H -1.1629242702  1.1877885333 -1.0010717752
 H  1.6088032472  0.1162991806 -0.8532764642
 H  1.5128994428 -1.7063093213 -0.5768473202
 H  1.8959535715 -0.5509639287  0.7378366660
 H -1.8053521066 -1.1281911857 -1.1017976711
13
step 27
 O -0.9669189319  1.7743129023 -0.2193806732
 O -0.4818151963  1.1647896189  1.8969986959
 N -0.8708969399 -0.6866880563 -1.2335781101
 C -0.1988286780 -0.5835402045  0.0894357352
 C -0.5823389183  0.8182299458  0.7552224097
 C  1.3349835134 -0.6976995276 -0.1846511644
 H -0.3340252624 -1.3179908696 -1.8231506285
 H -0.4844450274 -1.3955462248  0.7640219514
 H -1.1607229778  1.1854671473 -0.9962425612
 H  1.6043325988  0.1270208400 -0.8568461241
 H  1.5121231842 -1.6967756374 -0.5762820657
 H  1.8975005737 -0.5465075256  0.7324658430
 H -1.8101096364 -1.1281874269 -1.1064327912
13
step 28
 O -0.9679958161  1.7770212825 -0.2177708661
 O -0.4848848452  1.1704317219  1.8992724761
 N -0.8712737070 -0.6856064519 -1.2312707302
 C -0.2013770222 -0.5782036269  0.0915902056
 C -0.5834424112  0.8195196467  0.7551150737
 C  1.3358246082 -0.6965706166 -0.1840448078
 H -0.3306315079 -1.3109113255 -1.8196430929
 H -0.4911389287 -1.3903663680  0.7668248404
 H -1.1581008654  1.1839591663 -0.9917944061
 H  1.6002862260  0.1356337130 -0.8608182363
 H  1.5124867220 -1.6863022266 -0.5764195246
 H  1.8990407083 -0.5426854523  0.7271699932
 H -1.8130942336 -1.1275500555 -1.1114840857
13
step 29
 O -0.9690786794  1.7795304974 -0.2160547414
 O -0.4879395497  1.1760470649  1.9018071463
 N -0.8719549721 -0.6844257700 -1.2288232265
 C -0.2038195415 -0.5728693719  0.0938772869
 C -0.5845511755  0.8210009973  0.7543930388
 C  1.3364469164 -0.6950666748 -0.1833402627
 H -0.3264155648 -1.3051331511 -1.8173369367
 H -0.4980909541 -1.3848933677  0.7698469085
 H -1.1551279039  1.1833507936 -0.9879120351
 H  1.5965493749  0.1415418740 -0.8647286081
 H  1.5141021304 -1.6757651941 -0.5775773809
 H  1.9008021293 -0.5394617617  0.7223649907
 H -1.8140363526 -1.1261968171 -1.1168854796
13
step 30
 O -0.9701660785  1.7818342698 -0.2142355635
 O -0.4909824587  1.1816103719  1.9045423046
 N -0.8729350762 -0.6831359437 -1.2262487073
 C -0.2061404127 -0.5675875265  0.0962998343
 C -0.5856607770  0.8227317049  0.7531606452
 C  1.3368079732 -0.6930802290 -0.1825709200
 H -0.3214058707 -1.3006524152 -1.8162404159
 H -0.5051840668 -1.3790178188  0.7730231171
 H -1.1518757598  1.1836989222 -0.9847900586
 H  1.5930504793  0.1443579856 -0.8682206596
 H  1.5170407584 -1.6659924004 -0.5800298127
 H  1.9029935948 -0.5367841830  0.7184277308
 H -1.8129397871 -1.1241669644 -1.1225246504
13
step 31
 O -0.9712573080  1.7839301656 -0.2123185480
 O -0.4940172866  1.1870946525  1.9074095343
 N -0.8741751791 -0.6817334097 -1.2235764175
 C -0.2083266262 -0.5624051811  0.0988564241
 C -0.5867651501  0.8247680331  0.7515360979
 C  1.3368720033 -0.6905401902 -0.1817582432
 H -0.3158075139 -1.2972576408 -1.8161677648
 H -0.5122995542 -1.3726499624  0.7763026313
 H -1.1484125366  1.1850392577 -0.9826128792
 H  1.5897667399  0.1439402152 -0.8710748008
 H  1.5213147140 -1.6576415743 -0.5839586168
 H  1.9057744665 -0.5345935854  0.7156479403
 H -1.8100816752 -1.1216207612 -1.1282513810
13
step 32
 O -0.9723527337  1.7858196479 -0.2103119035
 O -0.4970479332  1.1924723509  1.9103359990
 N -0.8756077591 -0.6802189657 -1.2208482169
 C -0.2103677248 -0.5573648424  0.1015406366
 C -0.5878571086  0.8271624153  0.7496463475
 C  1.3366138367 -0.6874215880 -0.1809108588
 H -0.3099704098 -1.2945741227 -1.8167764656
 H -0.5193225770 -1.3657325364  0.7796575013
 H -1.1447972772  1.1873920877 -0.9815355377
 H  1.5867258885  0.1404106983 -0.8732262311
 H  1.5268597356 -1.6510975884 -0.5894087935
 H  1.9092287144 -0.5328324511  0.7141897521
 H -1.8059840844 -1.1188260111 -1.1338878989
13
step 33
 O -0.9734539995  1.7875077797 -0.2082275169
 O -0.5000781738  1.1977165303  1.9132479491
 N -0.8771453895 -0.6785948366 -1.2181127877
 C -0.2122556336 -0.5525027528  0.1043409212
 C -0.5889287678  0.8299610507  0.7476213120
 C  1.3360217229 -0.6837500467 -0.1800245972
 H -0.3043304707 -1.2921345075 -1.8176313060
 H -0.5261469401 -1.3582499255  0.7830879315
 H -1.1410753154  1.1907691514 -0.9816650512
 H  1.5840039780  0.1341540027 -0.8747705692
 H  1.5335243878 -1.6464151729 -0.5962607325
 H  1.9133482163 -0.5314504335  0.7140685147
 H -1.8013525548 -1.1161298842 -1.1392427907
13
step 34
 O -0.9745641594  1.7890029899 -0.2060814043
 O -0.5031114141  1.2028019592  1.9160738744
 N -0.8786928289 -0.6768621815 -1.2154190274
 C -0.2139844552 -0.5478475675  0.1072408617
 C -0.5899718806  0.8332017192  0.7455885495
 C  1.3350984390 -0.6795995694 -0.1790832206
 H -0.2993386378 -1.2894583527 -1.8182788233
 H -0.5326787784 -1.3502330130  0.7866241795
 H -1.1372750205  1.1951786917 -0.9830454884
 H  1.5817195102  0.1257948552 -0.8759562595
 H  1.5410694480 -1.6433240299 -0.6042280283
 H  1.9180286117 -0.5304058377  0.7151479642
 H -1.7969812325 -1.1139154984 -1.1441262483
13
step 35
 O -0.9756877121  1.7903169798 -0.2038938061
 O -0.5061505181  1.2077060531  1.9187471966
 N -0.8801609457 -0.6750199776 -1.2128098930
 C -0.2155502402 -0.5434194963  0.1102198634
 C -0.5909780823  0.8369119421  0.7436685915
 C  1.3338605369 -0.6750834761 -0.1780600905
 H -0.2953922623 -1.2861251435 -1.8183170995
 H -0.5388388681 -1.3417592553  0.7903249049
 H -1.1334063673  1.2006272716 -0.9856490703
 H  1.5800228079  0.1161516963 -0.8771597491
 H  1.5491792137 -1.6412943106 -0.6128828678
 H  1.9230788278 -0.5296630667  0.7171587669
 H -1.7936307297 -1.1125455980 -1.1483645565
13
step 36
 O -0.9768305261  1.7914648010 -0.2016888509
 O -0.5091977051  1.2124096437  1.9212084588
 N -0.8814804804 -0.6730654291 -1.2103175541
 C -0.2169507687 -0.5392299824  0.1132542330
 C -0.5919390521  0.8411075811  0.7419710425
 C  1.3323361439 -0.6703397965 -0.1769214364
 H -0.2927789413 -1.2818312109 -1.8174513118
 H -0.5445633895 -1.3329478869  0.7942719820
 H -1.1294614926  1.2071176474 -0.9893748139
 H  1.5790790340  0.1061630163 -0.8788385448
 H  1.5574832028 -1.6396424625 -0.6217027262
 H  1.9282426498 -0.5291872643  0.7197352166
 H -1.7918962158 -1.1123008546 -1.1518115534
13
step 37
 O -0.9779996616  1.7924650789 -0.1994937801
 O -0.5122544984  1.2168975542  1.9234070189
 N -0.8826132091 -0.6709952544 -1.2079602364
 C -0.2181853965 -0.5352819426  0.1163185613
 C -0.5928466107  0.8457919190  0.7405914783
 C  1.3305621001 -0.6655134360 -0.1756318191
 H -0.2916378388 -1.2764268530 -1.8155311109
 H -0.5498030903 -1.3239506042  0.7985620066
 H -1.1254170745  1.2146428894 -0.9940551532
 H  1.5790438814  0.0967878956 -0.8814598588
 H  1.5655841347 -1.6376494758 -0.6301271475
 H  1.9332284627 -0.5289380260  0.7224635797
 H -1.7920941093 -1.1133256182 -1.1543553458
13
step 38
 O -0.9792031075  1.7933403106 -0.1973377941
 O -0.5153217057  1.2211589832  1.9253022925
 N -0.8835581385 -0.6688068405 -1.2057407882
 C -0.2192550153 -0.5315705318  0.1193872792
 C -0.5936927811  0.8509552310  0.7396091106
 C  1.3285811901 -0.6607378652 -0.1741616477
 H -0.2919400933 -1.2699334112 -1.8125693127
 H -0.5545209401 -1.3149385574  0.8032950254
 H -1.1212381098  1.2231777882 -0.9994697871
 H  1.5800331288  0.0888908808 -0.8854097947
 H  1.5730873231 -1.6346673641 -0.6376134779
 H  1.9377422356 -0.5288639554  0.7249342054
 H -1.7941981772 -1.1155956952 -1.1559198597
13
step 39
 O -0.9804494544  1.7941171497 -0.1952506393
 O -0.5183994248  1.2251877049  1.9268645979
 N -0.8843512691 -0.6664985051 -1.2036468469
 C -0.2201621442 -0.5280843403  0.1224362526
 C -0.5944698160  0.8565748152  0.7390851530
 C  1.3264398007 -0.6561191220 -0.1724954485
 H -0.2934886695 -1.2625409654 -1.8087421524
 H -0.5586885354 -1.3060869440  0.8085614052
 H -1.1168827297  1.2326691873 -1.0053649389
 H  1.5820907387  0.0831314607 -0.8908986230
 H  1.5796276323 -1.6302001909 -0.6436841404
 H  1.9415191231 -0.5288992078  0.7267900876
 H -1.7978445729 -1.1189181591 -1.1564623032
13
step 40
 O -0.9817475235  1.7948264793 -0.1932609914
 O -0.5214870880  1.2289820955  1.9280756591
 N -0.8850589982 -0.6640688407 -1.2016524935
 C -0.2209111268 -0.5248068499  0.1254443126
 C -0.5951701974  0.8626155523  0.7390616417
 C  1.3241857935 -0.6517245791 -0.1706386249
 H -0.2959383422 -1.2545866050 -1.8043705544
 H -0.5622816596 -1.2975589270  0.8144281499
 H -1.1123073456  1.2430275001 -1.0114757144
 H  1.5851633686  0.0798839429 -0.8978863550
 H  1.5848918985 -1.6239562600 -0.6479624633
 H  1.9443501832 -0.5289623381  0.7277664229
 H -1.8024038770 -1.1229635563 -1.1559684052
13
step 41
 O -0.9831061108  1.7955032958 -0.1913949391
 O -0.5245834613  1.2325450809  1.9289289950
 N -0.8857667792 -0.6615158063 -1.1997214731
 C -0.2215083123 -0.5217180076  0.1283944306
 C -0.5957867743  0.8690308328  0.7395608668
 C  1.3218662500 -0.6475781314 -0.1686204149
 H -0.2988364976 -1.2465125429 -1.7998814706
 H -0.5652757660 -1.2894910258  0.8209266049
 H -1.1074696417  1.2541200662 -1.0175492927
 H  1.5890894357  0.0792094419 -0.9060527998
 H  1.5886359808 -1.6158744421 -0.6501971451
 H  1.9461017607 -0.5289570322  0.7277182680
 H -1.8070979479 -1.1273211697 -1.1544465825
13
step 42
 O -0.9845336509  1.7961863132 -0.1896746582
 O -0.5276866984  1.2358839665  1.9294299717
 N -0.8865652820 -0.6588365203 -1.1978118697
 C -0.2219621535 -0.5187956643  0.1312746663
 C -0.5963128437  0.8757638140  0.7405852269
 C  1.3195245455 -0.6436617390 -0.1664917358
 H -0.3016839471 -1.2388057435 -1.7957489064
 H -0.5676420140 -1.2819816049  0.8280429618
 H -1.1023327773  1.2657684473 -1.0233651318
 H  1.5936078409  0.0808847254 -0.9148240553
 H  1.5906969600 -1.6061301212 -0.6502769385
 H  1.9467269765 -0.5287745739  0.7266345758
 H -1.8111307356 -1.1315628185 -1.1519226179
13
step 43
 O -0.9860379683  1.7969171156 -0.1881172994
 O -0.5307943730  1.2390102139  1.9295957505
 N -0.8875363915 -0.6560282817 -1.1958819486
 C -0.2222831261 -0.5160166999  0.1340786703
 C -0.5967423886  0.8827490711  0.7421172679
 C  1.3171970677 -0.6399220554 -0.1643184941
 H -0.3040109135 -1.2319233273 -1.7924193490
 H -0.5693447191 -1.2750842933  0.8357132572
 H -1.0968671436  1.2777502091 -1.0287510855
 H  1.5983845160  0.0844755635 -0.9234481602
 H  1.5910002081 -1.5951243631 -0.6482360775
 H  1.9462684919 -0.5282974604  0.7246387914
 H -1.8138063960 -1.1353027726 -1.1484345627
13
step 44
 O -0.9876261087  1.7977390471 -0.1867343243
 O -0.5339035234  1.2419391586  1.9294550646
 N -0.8887409571 -0.6530905838 -1.1938964021
 C -0.2224834189 -0.5133577699  0.1368056966
 C -0.5970703556  0.8899144344  0.7441201285
 C  1.3149102318 -0.6362800244 -0.1621722571
 H -0.3054567460 -1.2262151102 -1.7902324715
 H -0.5703409385 -1.2688071084  0.8438238357
 H -1.0910507069  1.2898050603 -1.0335932823
 H  1.6030499067  0.0894307256 -0.9310983973
 H  1.5895608717 -1.5834577638 -0.6442500141
 H  1.9448525276 -0.5274040996  0.7219764309
 H -1.8146197287 -1.1382459623 -1.1440278621
13
step 45
 O -0.9893042212  1.7986958606 -0.1855313688
 O -0.5370107286  1.2446896429  1.9290477508
 N -0.8902098289 -0.6500271797 -1.1918317065
 C -0.2225764291 -0.5107956110  0.1394601160
 C -0.5972929113  0.8971829696  0.7465384231
 C  1.3126786451 -0.6326416439 -0.1601206313
 H -0.3058364943 -1.2218598752 -1.7893542432
 H -0.5705824639 -1.2631172063  0.8522173456
 H -1.0848685804  1.3016453104 -1.0378383060
 H  1.6072386625  0.0951734641 -0.9369790716
 H  1.5864785630 -1.5718872613 -0.6386195451
 H  1.9426741707 -0.5259745949  0.7189903231
 H -1.8133142950 -1.1402214267 -1.1387507814
13
step 46
 O -0.9910774897  1.7998301806 -0.1845086616
 O -0.5401121960  1.2472835628  1.9284239951
 N -0.8919393731 -0.6468470299 -1.1896792118
 C -0.2225761275 -0.5083069280  0.1420504447
 C -0.5974076952  0.9044750342  0.7492996138
 C  1.3105051394 -0.6289089788 -0.1582192290
 H -0.3051767270 -1.2188321558 -1.7897406223
 H -0.5700200536 -1.2579503556  0.8607035258
 H -1.0783118049  1.3129699103 -1.0414873233
 H  1.6106245766  0.1011762117 -0.9404152827
 H  1.5819237890 -1.5612625959 -0.6317409444
 H  1.9399743553 -0.5238975883  0.7160848056
 H -1.8099091495 -1.1412007400 -1.1326503410
13
step 47
 O -0.9929500982  1.8011818885 -0.1836619822
 O -0.5432038576  1.2497453183  1.9276432270
 N -0.8938920815 -0.6435634390 -1.1874451121
 C -0.2224963815 -0.5058679644  0.1445879866
 C -0.5974140436  0.9117103383  0.7523159774
 C  1.3083829088 -0.6249912445 -0.1565061884
 H -0.3037099483 -1.2169092136 -1.7911428673
 H -0.5686093131 -1.2532235368  0.8690734147
 H -1.0713757741  1.3234809752 -1.0445827268
 H  1.6129473882  0.1070142350 -0.9409187011
 H  1.5761155029 -1.5524403778 -0.6240611325
 H  1.9370099290 -0.5210779533  0.7136812396
 H -1.8046961313 -1.1413015937 -1.1257691404
13
step 48
 O -0.9949252076  1.8027865479 -0.1829840644
 O -0.5462814777  1.2521011558  1.9267725848
 N -0.8960021301 -0.6401916177 -1.1851473850
 C -0.2223503079 -0.5034539164  0.1470852510
 C -0.5973131568  0.9188099649  0.7554872686
 C  1.3062993867 -0.6208159238 -0.1549993394
 H -0.3018293542 -1.2157157593 -1.7931527442
 H -0.5663173463 -1.2488487631  0.8771152861
 H -1.0640588727  1.3329013869 -1.0471889993
 H  1.6140311411  0.1124006127 -0.9382295557
 H  1.5692913638 -1.5461789469 -0.6160206833
 H  1.9340197153 -0.5174447894  0.7121689397
 H -1.7982079794 -1.1407757457 -1.1181435694
13
step 49
 O -0.9970049115  1.8046739869 -0.1824662678
 O -0.5493407696  1.2543783965  1.9258848885
 N -0.8981850344 -0.6367457379 -1.1828106642
 C -0.2221497046 -0.5010383697  0.1495543395
 C -0.5971081909  0.9256983219  0.7587041566
 C  1.3042409386 -0.6163393336 -0.1536954936
 H -0.3000170701 -1.2147931481 -1.7952741552
 H -0.5631292082 -1.2447462773  0.8846305954
 H -1.0563618912  1.3409918425 -1.0493706661
 H  1.6137953431  0.1172070725 -0.9323386704
 H  1.5616755013 -1.5430261296 -0.6079930094
 H  1.9311911086 -0.5129587959  0.7118575614
 H -1.7911560131 -1.1399795733 -1.1098040595
13
step 50
 O -0.9991901479  1.8068671424 -0.1821002763
 O -0.5523775175  1.2566045513  1.9250560876
 N -0.9003501040 -0.6332368166 -1.1804603573
 C -0.2219045844 -0.4985929336  0.1520054844