13
step 0
 O -0.9519706196  1.6939249768 -0.2447853435
 O -0.4068566685  1.0110212516  1.8543366840
 N -0.8849150229 -0.7238881182 -1.2648712891
 C -0.1732038612 -0.6421809030  0.0425072719
 C -0.5217850097  0.7523104455  0.6718891651
 C  1.3539655699 -0.7515626220 -0.1679152760
 H -0.4071964166 -1.4130461046 -1.8636428001
 H -0.4918077429 -1.4220139967  0.7407845464
 H -1.0188586801  1.1750783901 -1.0867815058
 H  1.6984853686  0.0116616642 -0.8595610261
 H  1.6110163721 -1.7270802943 -0.5712569685
 H  1.8684681006 -0.6225092381  0.7793135276
 H -1.8273413904 -1.1097154681 -1.1020169995
13
step 1
 O -0.9518794981  1.6959618977 -0.2435326004
 O -0.4089927181  1.0170623933  1.8587279377
 N -0.8843790183 -0.7218331326 -1.2643660148
 C -0.1718615153 -0.6428110774  0.0448172729
 C -0.5256423987  0.7562220450  0.6710548971
 C  1.3502957714 -0.7475537763 -0.1684878139
 H -0.4054934619 -1.4158799431 -1.8661198650
 H -0.4869791042 -1.4245507088  0.7403279441
 H -1.0295004633  1.1804690260 -1.0861724208
 H  1.6995076971 -0.0003125765 -0.8623862959
 H  1.6134377048 -1.7274784437 -0.5778291255
 H  1.8686626638 -0.6256846918  0.7820124183
 H -1.8191756599 -1.1116110287 -1.1000463474
13
step 2
 O -0.9517984854  1.6980294165 -0.2422838610
 O -0.4111517340  1.0231227710  1.8630616837
 N -0.8837714182 -0.7197895555 -1.2638868693
 C -0.1705439498 -0.6434000806  0.0471137489
 C -0.5294902854  0.7601361198  0.6703443947
 C  1.3466646554 -0.7436599957 -0.1690220425
 H -0.4040487571 -1.4182152658 -1.8681886955
 H -0.4822073693 -1.4271520389  0.7399833590
 H -1.0401359093  1.1857873549 -1.0855588664
 H  1.7007035069 -0.0114629060 -0.8656537862
 H  1.6155395317 -1.7272554364 -0.5840175370
 H  1.8686872757 -0.6288043704  0.7843095330
 H -1.8116942173 -1.1137578161 -1.0979532979
13
step 3
 O -0.9517384904  1.7001458172 -0.2410521881
 O -0.4133435976  1.0291857883  1.8672583113
 N -0.8830344174 -0.7177786064 -1.2634568235
 C -0.1692848809 -0.6439047628  0.0493710644
 C -0.5332952106  0.7640296036  0.6698803252
 C  1.3431312259 -0.7400052083 -0.1694809268
 H -0.4030752016 -1.4196098652 -1.8694969206
 H -0.4775734181 -1.4298569398  0.7398530963
 H -1.0506977694  1.1909435967 -1.0849244941
 H  1.7022215586 -0.0209736908 -0.8697395878
 H  1.6170147545 -1.7258959859 -0.5894408238
 H  1.8683916099 -0.6317861033  0.7858328889
 H -1.8055414239 -1.1163613306 -1.0956426366
13
step 4
 O -0.9517101454  1.7023280880 -0.2398515125
 O -0.4155775469  1.0352362891  1.8712456649
 N -0.8821308656 -0.7158176938 -1.2630885700
 C -0.1681181858 -0.6442848616  0.0515666539
 C -0.5370253569  0.7678788648  0.6697743689
 C  1.3397517702 -0.7366850628 -0.1698398402
 H -0.4026982972 -1.4197494337 -1.8698025467
 H -0.4731490423 -1.4326823859  0.7400161129
 H -1.0611180759  1.1958651073 -1.0842301216
 H  1.7041489236 -0.0282032532 -0.8748890489
 H  1.6176049183 -1.7230512958 -0.5937906692
 H  1.8676692465 -0.6345393023  0.7862965360
 H -1.8011658387 -1.1195513770 -1.0930545233
13
step 5
 O -0.9517235792  1.7045914526 -0.2386959081
 O -0.4178619570  1.0412609065  1.8749608427
 N -0.8810511497 -0.7139204354 -1.2627815735
 C -0.1670774207 -0.6445042985  0.0536824222
 C -0.5406513235  0.7716602528  0.6701237084
 C  1.3365794854 -0.7337578253 -0.1700930371
 H -0.4029361524 -1.4184811141 -1.8690007952
 H -0.4689935962 -1.4356145146  0.7405192274
 H -1.0713280428  1.2004957653 -1.0834151828
 H  1.7064755460 -0.0327543819 -0.8811494521
 H  1.6171174606 -1.7185738051 -0.5968544145
 H  1.8664732915 -0.6369660822  0.7855307852
 H -1.7987451136 -1.1233464560 -1.0901805512
13
step 6
 O -0.9517881558  1.7069490256 -0.2375986385
 O -0.4202041506  1.0472482616  1.8783514556
 N -0.8798155319 -0.7120966683 -1.2625208937
 C -0.1661952294 -0.6445320725  0.0557056840
 C -0.5441467860  0.7753507401  0.6710082668
 C  1.3336636648 -0.7312402063 -0.1702568301
 H -0.4036929747 -1.4158275399 -1.8671344189
 H -0.4651521534 -1.4386037362  0.7413720918
 H -1.0812584760  1.2047930412 -1.0824034595
 H  1.7090758669 -0.0345057510 -0.8883370914
 H  1.6154372701 -1.7125316809 -0.5985291462
 H  1.8648254978 -0.6389637531  0.7834997202
 H -1.7981601221 -1.1276382213 -1.0870712347
13
step 7
 O -0.9519121856  1.7094115678 -0.2365710535
 O -0.4226102371  1.0531890605  1.8813764563
 N -0.8784714811 -0.7103520737 -1.2622778852
 C -0.1655026001 -0.6443426489  0.0576295686
 C -0.5474890587  0.7789286119  0.6724886033
 C  1.3310478837 -0.7291083908 -0.1703684068
 H -0.4047655795 -1.4119815748 -1.8643880027
 H -0.4616553531 -1.4415647375  0.7425465827
 H -1.0908408442  1.2087235208 -1.0811120900
 H  1.7117141605 -0.0335983748 -0.8960496744
 H  1.6125327816 -1.7052061175 -0.5988280005
 H  1.8628183512 -0.6404282233  0.7803050502
 H -1.7990251011 -1.1322010752 -1.0838328111
13
step 8
 O -0.9521026005  1.7119873329 -0.2356214684
 O -0.4250849866  1.0590761312  1.8840066832
 N -0.8770867058 -0.7086875903 -1.2620127328
 C -0.1650280058 -0.6439158371  0.0594528734
 C -0.5506595375  0.7823741743  0.6746043699
 C  1.3287673506 -0.7273035995 -0.1704805443
 H -0.4058626514 -1.4072814937 -1.8610662310
 H -0.4585209088 -1.4443814439  0.7439807315
 H -1.1000095429  1.2122575287 -1.0794621941
 H  1.7140725727 -0.0303840836 -0.9037208571
 H  1.6084563718 -1.6970726653 -0.5978784976
 H  1.8606097180 -0.6412579886  0.7761760386
 H -1.8007643306 -1.1367245615 -1.0806141749
13
step 9
 O -0.9523647041  1.7146820494 -0.2347542299
 O -0.4276317451  1.0649044529  1.8862251760
 N -0.8757394154 -0.7070992348 -1.2616786393
 C -0.1647964254 -0.6432362815  0.0611794753
 C -0.5536440217  0.7856703346  0.6773734313
 C  1.3268461764 -0.7257408696 -0.1706536254
 H -0.4066365916 -1.4021664147 -1.8575558583
 H -0.4557564625 -1.4469163178  0.7455865556
 H -1.1087041754  1.2153640749 -1.0773894848
 H  1.7157940036 -0.0253521557 -0.9107016644
 H  1.6033383059 -1.6887656890 -0.5959117138
 H  1.8584099738 -0.6413587152  0.7714455723
 H -1.8027146748 -1.1408599321 -1.0775873054
13
step 10
 O -0.9527019704  1.7174988751 -0.2339689825
 O -0.4302523789  1.0706711977  1.8880273125
 N -0.8745075388 -0.7055789660 -1.2612272736
 C -0.1648283681 -0.6422926133  0.0628174799
 C -0.5564329682  0.7888030750  0.6807913878
 C  1.3252956084 -0.7243197966 -0.1709468766
 H -0.4067268456 -1.3971135603 -1.8542724871
 H -0.4533632561 -1.4490227252  0.7472606090
 H -1.1168715729  1.2180073520 -1.0748531212
 H  1.7165289580 -0.0190515877 -0.9163488230
 H  1.5973731750 -1.6810233825 -0.5932404676
 H  1.8564619071 -0.6406483683  0.7665132804
 H -1.8042311226 -1.1442703849 -1.0749255336
13
step 11
 O -0.9531159124  1.7204383805 -0.2332603020
 O -0.4329472521  1.0763757493  1.8894208239
 N -0.8734584723 -0.7041167750 -1.2606148905
 C -0.1651390289 -0.6410764707  0.0643782008
 C -0.5590215775  0.7917617691  0.6848315522
 C  1.3241140422 -0.7229363000 -0.1714105017
 H -0.4058107554 -1.3925632625 -1.8515970691
 H -0.4513401789 -1.4505585811  0.7488959969
 H -1.1244680653  1.2201448442 -1.0718412465
 H  1.7159773223 -0.0120215524 -0.9201038369
 H  1.5907984962 -1.6746119754 -0.5902254927
 H  1.8550144459 -0.6390628263  0.7617983509
 H -1.8047779030 -1.1466763114 -1.0727833117
13
step 12
 O -0.9536060764  1.7234985519 -0.2326177855
 O -0.4357152158  1.0820197041  1.8904256556
 N -0.8726404901 -0.7027035517 -1.2598082662
 C -0.1657376264 -0.6395815502  0.0658751118
 C -0.5614097529  0.7945392450  0.6894454450
 C  1.3232889174 -0.7214947132 -0.1720797090
 H -0.4036548255 -1.3888432545 -1.8498115790
 H -0.4496876395 -1.4513997380  0.7503943465
 H -1.1314608000  1.2217277946 -1.0683724679
 H  1.7139201424 -0.0047358795 -0.9215541372
 H  1.5838668927 -1.6702317637 -0.5872312051
 H  1.8542927960 -0.6365617655  0.7576866127
 H -1.8039965133 -1.1478903786 -1.0712798832
13
step 13
 O -0.9541701697  1.7266747422 -0.2320265805
 O -0.4385536091  1.0876068311  1.8910736566
 N -0.8720766849 -0.7013337447 -1.2587893604
 C -0.1666269920 -0.6378027911  0.0673228533
 C -0.5636019263  0.7971316463  0.6945637539
 C  1.3227999341 -0.7199193625 -0.1729709335
 H -0.4001564029 -1.3861081363 -1.8490472071
 H -0.4484108516 -1.4514516793  0.7516764651
 H -1.1378277538  1.2227042561 -1.0644930216
 H  1.7102402505  0.0024378552 -0.9204742610
 H  1.5768158284 -1.6684148812 -0.5845765998
 H  1.8544689043 -0.6331342538  0.7544788789
 H -1.8017483101 -1.1478404308 -1.0704881168
13
step 14
 O -0.9548043075  1.7299595620 -0.2314683106
 O -0.4414582764  1.0931429679  1.8914080574
 N -0.8717621100 -0.7000067346 -1.2575576928
 C -0.1678034272 -0.6357357945  0.0687363400
 C -0.5656067366  0.7995381484  0.7000977804
 C  1.3226225350 -0.7181643214 -0.1740800404
 H -0.3953656984 -1.3843094160 -1.8492582020
 H -0.4475222432 -1.4506584131  0.7526907173
 H -1.1435566271  1.2230244792 -1.0602699667
 H  1.7049328009  0.0092663429 -0.9168487089
 H  1.5698411183 -1.6694328567 -0.5824907609
 H  1.8556370949 -0.6288032487  0.7523490337
 H -1.7981321625 -1.1465798974 -1.0704289674
13
step 15
 O -0.9555033567  1.7333427346 -0.2309223027
 O -0.4444236182  1.0986358509  1.8914826573
 N -0.8716645167 -0.6987263318 -1.2561298657
 C -0.1692568140 -0.6333765450  0.0701300187
 C -0.5674365753  0.8017606036  0.7059414550
 C  1.3227305427 -0.7162196781 -0.1753820865
 H -0.3894820640 -1.3832045272 -1.8502287127
 H -0.4470427749 -1.4490078390  0.7534184494
 H -1.1486427938  1.2226481414 -1.0557814401
 H  1.6981070906  0.0156671342 -0.9108786001
 H  1.5630807013 -1.6732359725 -0.5810838456
 H  1.8577995620 -0.6236280638  0.7513197586
 H -1.7934775024 -1.1442854956 -1.0710718104
13
step 16
 O -0.9562613461  1.7368109539 -0.2303669801
 O -0.4474427004  1.1040948768  1.8913606251
 N -0.8717287264 -0.6974986368 -1.2545363445
 C -0.1709709588 -0.6307214698  0.0715173271
 C -0.5691070129  0.8038032021  0.7119740313
 C  1.3230972759 -0.7141128507 -0.1768323696
 H -0.3828251310 -1.3824022116 -1.8516107829
 H -0.4470020333 -1.4465331302  0.7538760811
 H -1.1530866525  1.2215525877 -1.0511055613
 H  1.6899801668  0.0217134091 -0.9029725963
 H  1.5566125651 -1.6794421316 -0.5803413272
 H  1.8608648079 -0.6177040032  0.7512608404
 H -1.7883114790 -1.1412414111 -1.0723409018
13
step 17
 O -0.9570719002  1.7403478093 -0.2297812556
 O -0.4505074469  1.1095307898  1.8911128089
 N -0.8718842920 -0.6963292111 -1.2528162369
 C -0.1729241619 -0.6277678328  0.0729104059
 C -0.5706361231  0.8056722408  0.7180635670
 C  1.3236952093 -0.7119043160 -0.1783688570
 H -0.3757877597 -1.3814319599 -1.8529833894
 H -0.4474370399 -1.4433098969  0.7541137280
 H -1.1568908855  1.2197409518 -1.0463099327
 H  1.6808615685  0.0276241268 -0.8937203901
 H  1.5504660974 -1.6873802994 -0.5801423810
 H  1.8646594574 -0.6111587958  0.7519103352
 H -1.7832981636 -1.1378089396 -1.0741280454
13
step 18
 O -0.9579286490  1.7439338374 -0.2291457569
 O -0.4536089269  1.1149552736  1.8908154794
 N -0.8720557166 -0.6952207077 -1.2510111307
 C -0.1750900023 -0.6245144358  0.0743201018
 C -0.5720437196  0.8073760689  0.7240712411
 C  1.3244949059 -0.7096782353 -0.1799163957
 H -0.3687809768 -1.3798211421 -1.8539188139
 H -0.4483898157 -1.4394491604  0.7542104477
 H -1.1600581906  1.2172488664 -1.0414437257
 H  1.6711280432  0.0337350594 -0.8838459274
 H  1.5446418983 -1.6961782037 -0.5802959503
 H  1.8689510719 -0.6041460697  0.7529140812
 H -1.7791500399 -1.1343818586 -1.0763107948
13
step 19
 O -0.9588255652  1.7475467512 -0.2284437422
 O -0.4567377297  1.1203804194  1.8905474868
 N -0.8721740693 -0.6941717338 -1.2491590429
 C -0.1774383179 -0.6209625611  0.0757562563
 C -0.5733505285  0.8089252598  0.7298564604
 C  1.3254641856 -0.7075293469 -0.1813930495
 H -0.3621805507 -1.3771655315 -1.8540442012
 H -0.4499038508 -1.4350865295  0.7542664621
 H -1.1625899920  1.2141485359 -1.0365339839
 H  1.6611879880  0.0404466949 -0.8741389334
 H  1.5391334061 -1.7048735107 -0.5805839886
 H  1.8734776015 -0.5968366538  0.7538758385
 H -1.7765185515 -1.1313311819 -1.0787740350
13
step 20
 O -0.9597571927  1.7511618673 -0.2276616198
 O -0.4598844007  1.1258180420  1.8903868945
 N -0.8721883407 -0.6931769931 -1.2472893213
 C -0.1799363319 -0.6171170636  0.0772282152
 C -0.5745773238  0.8103330222  0.7352825828
 C  1.3265681973 -0.7055479491 -0.1827183820
 H -0.3562820020 -1.3731842953 -1.8530906102
 H -0.4520197554 -1.4303684390  0.7543930104
 H -1.1644864516  1.2105492735 -1.0315870400
 H  1.6514380369  0.0481491301 -0.8653680885
 H  1.5339449142 -1.7125262199 -0.5808020104
 H  1.8779785170 -0.5894087855  0.7544095293
 H -1.7758800822 -1.1289477616 -1.0814309592
13
step 21
 O -0.9607187471  1.7547527230 -0.2267890543
 O -0.4630398968  1.1312788376  1.8904072485
 N -0.8720745034 -0.6922281032 -1.2454190914
 C -0.1825498439 -0.6129874929  0.0787454336
 C -0.5757440689  0.8116158296  0.7402229726
 C  1.3277704209 -0.7038049837 -0.1838226644
 H -0.3512676943 -1.3677557913 -1.8509263084
 H -0.4547704762 -1.4254368087  0.7547008241
 H -1.1657478308  1.2065941445 -1.0265949589
 H  1.6422180208  0.0571321670 -0.8581866900
 H  1.5291033080 -1.7183158835 -0.5807908729
 H  1.8822233459 -0.5820382606  0.7541863620
 H -1.7774419723 -1.1273951621 -1.0842382864
13
step 22
 O -0.9617060963  1.7582918481 -0.2258187149
 O -0.4661960167  1.1367714161  1.8906737248
 N -0.8718403363 -0.6913142475 -1.2435515878
 C -0.1852443893 -0.6085890993  0.0803180175
 C -0.5768691104  0.8127942079  0.7445670145
 C  1.3290340057 -0.7023393458 -0.1846552256
 H -0.3471875696 -1.3609336638 -1.8475737104
 H -0.4581765365 -1.4204138824  0.7552885207
 H -1.1663769566  1.2024529828 -1.0215459429
 H  1.6337736381  0.0674984891 -0.8530487831
 H  1.5246634170 -1.7216156584 -0.5804579925
 H  1.8860347143 -0.5748892884  0.7529720214
 H -1.7810938011 -1.1266852402 -1.0872012555
13
step 23
 O -0.9627156551  1.7617516339 -0.2247457701
 O -0.4693457686  1.1423012980  1.8912394774
 N -0.8715248616 -0.6904221350 -1.2416764816
 C -0.1879862812 -0.6039435736  0.0819570508
 C -0.5779684790  0.8138935761  0.7482256480
 C  1.3303226253 -0.7011494764 -0.1851899617
 H -0.3439544181 -1.3529435963 -1.8432099036
 H -0.4622417786 -1.4153891720  0.7562323992
 H -1.1663822598  1.1983126246 -1.0164369189
 H  1.6262361214  0.0791035487 -0.8501557873
 H  1.5207082929 -1.7220418957 -0.5797890734
 H  1.8893044032 -0.5681064876  0.7506514908
 H -1.7864188469 -1.1266834118 -1.0903667620
13
step 24
 O -0.9637442439  1.7651052946 -0.2235673141
 O -0.4724836504  1.1478699925  1.8921425142
 N -0.8711925137 -0.6895354178 -1.2397721091
 C -0.1907434581 -0.5990793991  0.0836745849
 C -0.5790553334  0.8149449582  0.7511360748
 C  1.3316003028 -0.7001907098 -0.1854266101
 H -0.3413548502 -1.3441605285 -1.8381500694
 H -0.4669501241 -1.4104102806  0.7575791076
 H -1.1657808796  1.1943654492 -1.0112860120
 H  1.6196238649  0.0915421044 -0.8494473184
 H  1.5173460312 -1.7194812012 -0.5788524089
 H  1.8920019231 -0.5618082882  0.7472407423
 H -1.7927628656 -1.1271415800 -1.0938067876
13
step 25
 O -0.9647889221  1.7683277773 -0.2222817394
 O -0.4756058278  1.1534742601  1.8934033716
 N -0.8709233252 -0.6886343019 -1.2378092880
 C -0.1934860975 -0.5940316611  0.0854833008
 C -0.5801396113  0.8159854830  0.7532650303
 C  1.3328302390 -0.6993786428 -0.1853876460
 H -0.3390774724 -1.3350658091 -1.8328127384
 H -0.4722637462 -1.4054789274  0.7593421339
 H -1.1646012122  1.1907979209 -1.0061426844
 H  1.6138640283  0.1041872974 -0.8506365663
 H  1.5147044220 -1.7140968543 -0.5777972370
 H  1.8941756013 -0.5560821096  0.7428854313
 H -1.7993409427 -1.1277488131 -1.0975971389
13
step 26
 O -0.9658468953  1.7713966105 -0.2208882768
 O -0.4787101818  1.1591057237  1.8950239904
 N -0.8708009625 -0.6876960751 -1.2357565248
 C -0.1961870375 -0.5888413810  0.0873958610
 C -0.5812279031  0.8170584619  0.7546103944
 C  1.3339734273 -0.6985976784 -0.1851119232
 H -0.3367586149 -1.3261855514 -1.8276662799
 H -0.4781228321 -1.4005527677  0.7615029332
 H -1.1628841874  1.1877802886 -1.0010942339
 H  1.6088259779  0.1162721753 -0.8532778477
 H  1.5129236635 -1.7063142676 -0.5768462239
 H  1.8959461027 -0.5509815409  0.7378471855
 H -1.8053570661 -1.1281874832 -1.1017964905
13
step 27
 O -0.9669154311  1.7742924486 -0.2193866010
 O -0.4817962644  1.1647509041  1.8969878198
 N -0.8709004381 -0.6866970885 -1.2335858807
 C -0.1988220629 -0.5835541203  0.0894241836
 C -0.5823235205  0.8182128577  0.7552005136
 C  1.3349877889 -0.6977129785 -0.1846468167
 H -0.3340427090 -1.3180145093 -1.8231607280
 H -0.4844471211 -1.3955524970  0.7640159675
 H -1.1606831341  1.1854592648 -0.9962663824
 H  1.6043566993  0.1269913398 -0.8568469653
 H  1.5121472973 -1.6967830473 -0.5762809854
 H  1.8974927381 -0.5465262835  0.7324777764
 H -1.8101134470 -1.1281837420 -1.1064304236
13
step 28
 O -0.9679920538  1.7770000999 -0.2177771883
 O -0.4848651255  1.1703915560  1.8992610816
 N -0.8712771137 -0.6856157209 -1.2312790478
 C -0.2013697906 -0.5782188378  0.0915781360
 C -0.5834267470  0.8195022518  0.7550930790
 C  1.3358286631 -0.6965843448 -0.1840405899
 H -0.3306495674 -1.3109367731 -1.8196542096
 H -0.4911393408 -1.3903738883  0.7668181319
 H -1.1580613865  1.1839514892 -0.9918195112
 H  1.6003115963  0.1356023019 -0.8608184826
 H  1.5125104583 -1.6863123877 -0.5764183087
 H  1.8990325297 -0.5427051988  0.7271833589
 H -1.8130973586 -1.1275465727 -1.1114804635
13
step 29
 O -0.9690746508  1.7795086285 -0.2160614917
 O -0.4879190449  1.1760054470  1.9017951648
 N -0.8719582087 -0.6844352953 -1.2288321223
 C -0.2038117214 -0.5728858828  0.0938646643
 C -0.5845352490  0.8209832651  0.7543711142
 C  1.3364508053 -0.6950807720 -0.1833362000
 H -0.3264344644 -1.3051601023 -1.8173487721
 H -0.4980896145 -1.3849022119  0.7698394279
 H -1.1550888951  1.1833431628 -0.9879382808
 H  1.5965759147  0.1415092513 -0.8647282841
 H  1.5141252106 -1.6757781644 -0.5775757994
 H  1.9007935681 -0.5394823495  0.7223797032
 H -1.8140393174 -1.1261937430 -1.1168805583
13
step 30
 O -0.9701617796  1.7818117579 -0.2142427768
 O -0.4909611706  1.1815673087  1.9045296824
 N -0.8729380646 -0.6831457483 -1.2262582104
 C -0.2061320350 -0.5676053301  0.0962866226
 C -0.5856445931  0.8227135889  0.7531389353
 C  1.3368117626 -0.6930948131 -0.1825670332
 H -0.3214258416 -1.3006805575 -1.8162526567
 H -0.5051809337 -1.3790280902  0.7730148336
 H -1.1518373045  1.1836911827 -0.9848172350
 H  1.5930780801  0.1443249119 -0.8682198406
 H  1.5170628976 -1.6660080060 -0.5800275595
 H  1.9029845501 -0.5368054797  0.7184436054
 H -1.8129431166 -1.1241644964 -1.1225184158
13
step 31
 O -0.9712527354  1.7839070549 -0.2123262598
 O -0.4939952164  1.1870501587  1.9073962345
 N -0.8741778507 -0.6817435178 -1.2235865508
 C -0.2083177243 -0.5624242592  0.0988425877
 C -0.5867487149  0.8247494706  0.7515147199
 C  1.3368757699 -0.6905553968 -0.1817545505
 H -0.3158287366 -1.2972867062 -1.8161801365
 H -0.5122946152 -1.3726617872  0.7762935275
 H -1.1483746984  1.1850312601 -0.9826407152
 H  1.5897952804  0.1439074560 -0.8710735858
 H  1.5213356295 -1.6576594459 -0.5839553265
 H  1.9057647864 -0.5346154758  0.7156647101
 H -1.8100858300 -1.1216190565 -1.1282438536
13
step 32
 O -0.9723478845  1.7857959826 -0.2103201489
 O -0.4970250814  1.1924264495  1.9103220025
 N -0.8756100622 -0.6802294024 -1.2208589940
 C -0.2103583341 -0.5573851661  0.1015261416
 C -0.5878404292  0.8271433276  0.7496253894
 C  1.3366176647 -0.6874375593 -0.1809073784
 H -0.3099929676 -1.2946039284 -1.8167887760
 H -0.5193158486 -1.3657460548  0.7796475673
 H -1.1447601033  1.1873836865 -0.9815637133
 H  1.5867552312  0.1403789666 -0.8732247157
 H  1.5268791594 -1.6511172350 -0.5894040755
 H  1.9092182157 -0.5328548367  0.7142070962
 H -1.8059894001 -1.1188251570 -1.1338791354
13
step 33
 O -0.9734488708  1.7874836038 -0.2082363291
 O -0.5000545404  1.1976692528  1.9132332543
 N -0.8771472954 -0.6786056280 -1.2181242115
 C -0.2122457908 -0.5525242843  0.1043257368
 C -0.5889118519  0.8299413446  0.7476008314
 C  1.3360257000 -0.6837669184 -0.1800213486
 H -0.3043543227 -1.2921649764 -1.8176434700
 H -0.5261384656 -1.3582652811  0.7830771583
 H -1.1410388432  1.1907601993 -0.9816932158
 H  1.5840339678  0.1341239030 -0.8747688165
 H  1.5335420832 -1.6464360779 -0.5962542168
 H  1.9133367099 -0.5314732295  0.7140860951
 H -1.8013591906 -1.1161298734 -1.1392328826
13
step 34
 O -0.9745587478  1.7889783467 -0.2060908130
 O -0.5030869986  1.2027533443  1.9160584966
 N -0.8786943343 -0.6768733553 -1.2154310902
 C -0.2139741979 -0.5478702616  0.1072249616
 C -0.5899547366  0.8331812885  0.7455685752
 C  1.3351026516 -0.6796174584 -0.1790802268
 H -0.2993636143 -1.2894895145 -1.8182908669
 H -0.5326686252 -1.3502503417  0.7866125513
 H -1.1372392844  1.1951690326 -0.9830732838
 H  1.5817499729  0.1257668309 -0.8759542711
 H  1.5410852288 -1.6433457484 -0.6042194162
 H  1.9180159318 -0.5304289696  0.7151654644
 H -1.7969891396 -1.1139162144 -1.1441153176
13
step 35
 O -0.9756820133  1.7902919120 -0.2039038356
 O -0.5061253201  1.2076561469  1.9187311665
 N -0.8801620719 -0.6750315646 -1.2128225784
 C -0.2155396064 -0.5434433023  0.1102032267
 C -0.5909607190  0.8368906706  0.7436491242
 C  1.3338650660 -0.6751024697 -0.1780573794
 H -0.2954180804 -1.2861571191 -1.8183291461
 H -0.5388271241 -1.3417786732  0.7903123929
 H -1.1333714063  1.2006167327 -0.9856761552
 H  1.5800535495  0.1161259854 -0.8771574371
 H  1.5491929622 -1.6413165432 -0.6128719747
 H  1.9230648584 -0.5296864679  0.7171759279
 H -1.7936396513 -1.1125468158 -1.1483527513
13
step 36
 O -0.9768245346  1.7914393500 -0.2016995188
 O -0.5091717243  1.2123584977  1.9211918205
 N -0.8814812679 -0.6730774627 -1.2103308392
 C -0.2169397968 -0.5392548462  0.1132368453
 C -0.5919214786  0.8410853455  0.7419520579
 C  1.3323410612 -0.6703599471 -0.1769190425
 H -0.2928052356 -1.2818641871 -1.8174635574
 H -0.5445501593 -1.3329694803  0.7942585381
 H -1.1294273566  1.2071060340 -0.9894008879
 H  1.5791098409  0.1061396244 -0.8788357122
 H  1.5574948834 -1.6396650931 -0.6216895102
 H  1.9282273462 -0.5292108753  0.7197518625
 H -1.7919057260 -1.1123022615 -1.1517990423
13
step 37
 O -0.9779933701  1.7924392841 -0.1995050960
 O -0.5122277346  1.2168452250  1.9233898283
 N -0.8826137092 -0.6710077704 -1.2079740947
 C -0.2181741249 -0.5353078087  0.1163004150
 C -0.5928288364  0.8457685922  0.7405729292
 C  1.3305674660 -0.6655347598 -0.1756297838
 H -0.2916642013 -1.2764610512 -1.8155437912
 H -0.5497884912 -1.3239744217  0.7985475596
 H -1.1253838290  1.2146299831 -0.9940799766
 H  1.5790745235  0.0967665947 -0.8814561971
 H  1.5655938015 -1.6376725726 -0.6301117189
 H  1.9332118632 -0.5289617961  0.7224796316
 H -1.7921036897 -1.1133268547 -1.1543423149
13
step 38
 O -0.9791965067  1.7933142080 -0.1973497584
 O -0.5152941591  1.2211055306  1.9252846151
 N -0.8835584029 -0.6688198750 -1.2057551923
 C -0.2192434822 -0.5315973454  0.1193683735
 C -0.5936748157  0.8509306858  0.7395909299
 C  1.3285870520 -0.6607603471 -0.1741600182
 H -0.2919661192 -1.2699690547 -1.8125826675
 H -0.5545050986 -1.3149646044  0.8032794795
 H -1.1212058380  1.2231633503 -0.9994931948
 H  1.5800633675  0.0888712425 -0.8854049070
 H  1.5730951199 -1.6346911524 -0.6375960934
 H  1.9377244641 -0.5288878457  0.7249496823
 H -1.7942073146 -1.1155964073 -1.1559065118
13
step 39
 O -0.9804425331  1.7940907712 -0.1952632431
 O -0.5183710963  1.2251331916  1.9268465069
 N -0.8843513395 -0.6665120932 -1.2036617713
 C -0.2201503876 -0.5281120487  0.1224165935
 C -0.5944516699  0.8565489279  0.7390672567
 C  1.3264461922 -0.6561427235 -0.1724942736
 H -0.2935140032 -1.2625782460 -1.8087563882
 H -0.5586715849 -1.3061151826  0.8085446416
 H -1.1168515322  1.2326529670 -1.0053868470
 H  1.5821203418  0.0831129204 -0.8908920775
 H  1.5796337873 -1.6302250096 -0.6436651848
 H  1.9415003824 -0.5289231950  0.7268050953
 H -1.7978528552 -1.1189180517 -1.1564488589
13
step 40
 O -0.9817402682  1.7947998505 -0.1932742162
 O -0.5214579788  1.2289265851  1.9280572335
 N -0.8850588976 -0.6640830152 -1.2016679174
 C -0.2208991841 -0.5248354038  0.1254239120
 C -0.5951518817  0.8625882059  0.7390439318
 C  1.3241927348 -0.6517492494 -0.1706379492
 H -0.2959627206 -1.2546256527 -1.8043858089
 H -0.5622637390 -1.2975892786  0.8144100318
 H -1.1122773377  1.2430092469 -1.0114961193
 H  1.5851921306  0.0798658849 -0.8978777612
 H  1.5848967144 -1.6239825120 -0.6479424236
 H  1.9443307405 -0.5289864184  0.7277811341
 H -1.8024110630 -1.1229624345 -1.1559551037
13
step 41
 O -0.9830985062  1.7954764350 -0.1914087577
 O -0.5245535732  1.2324886373  1.9289103172
 N -0.8857665074 -0.6615305978 -1.1997373829
 C -0.2214962197 -0.5217473623  0.1283733052
 C -0.5957683015  0.8690019207  0.7395432343
 C  1.3218737478 -0.6476038180 -0.1686202719
 H -0.2988597849 -1.2465534007 -1.7998977829
 H -0.5652570195 -1.2895233784  0.8209069858
 H -1.1074409494  1.2540995448 -1.0175682624
 H  1.5891171991  0.0791912844 -0.9060418898
 H  1.5886398210 -1.6159025452 -0.6501765796
 H  1.9460819279 -0.5289812240  0.7277328964
 H -1.8071040002 -1.1273189607 -1.1544336814
13
step 42
 O -0.9845256797  1.7961592294 -0.1896890355
 O -0.5276560339  1.2358266527  1.9294111260
 N -0.8865648141 -0.6588519580 -1.1978282606
 C -0.2219499461 -0.5188257796  0.1312528365
 C -0.5962942278  0.8757332426  0.7405675551
 C  1.3195325948 -0.6436883966 -0.1664921428
 H -0.3017061542 -1.2388483528 -1.7957661988
 H -0.5676225929 -1.2820158230  0.8280216968
 H -1.1023055322  1.2657454540 -1.0233827913
 H  1.5936345138  0.0808659841 -0.9148107492
 H  1.5907002325 -1.6061604616 -0.6502564433
 H  1.9467070869 -0.5287989207  0.7266493481
 H -1.8111358150 -1.1315595728 -1.1519103895
13
step 43
 O -0.9860296115  1.7968898076 -0.1881321938
 O -0.5307629350  1.2389520911  1.9295768207
 N -0.8875356806 -0.6560443937 -1.1958988253
 C -0.2222708370 -0.5160475409  0.1340561589
 C -0.5967236454  0.8827167625  0.7420994355
 C  1.3172056545 -0.6399496524 -0.1643194498
 H -0.3040321954 -1.2319675293 -1.7924374275
 H -0.5693247840 -1.2751202297  0.8356902152
 H -1.0968414774  1.2777245873 -1.0287675976
 H  1.5984100816  0.0844558851 -0.9234325998
 H  1.5910033472 -1.5951572507 -0.6482162505
 H  1.9462488750 -0.5283220322  0.7246539173
 H -1.8138108284 -1.1352986484 -1.1484232878
13
step 44
 O -0.9876173458  1.7977115025 -0.1867496894
 O -0.5338713153  1.2418802850  1.9294361320
 N -0.8887399397 -0.6531073979 -1.1939137778
 C -0.2224710789 -0.5133893068  0.1367825272
 C -0.5970515031  0.8898803281  0.7441020134
 C  1.3149193364 -0.6363085463 -0.1621737421
 H -0.3054773725 -1.2262606654 -1.7902510491
 H -0.5703206623 -1.2688446155  0.8437989116
 H -1.0910267472  1.2897767138 -1.0336088261
 H  1.6030744227  0.0894098909 -0.9310809443
 H  1.5895643165 -1.5834933902 -0.6442314172
 H  1.9448334841 -0.5274289934  0.7219920751
 H -1.8146239545 -1.1382411981 -1.1440178225
13
step 45
 O -0.9892950304  1.7986680551 -0.1855471549
 O -0.5369777543  1.2446300728  1.9290288918
 N -0.8902084330 -0.6500447228 -1.1918496002
 C -0.2225640664 -0.5108278192  0.1394363119
 C -0.5972739698  0.8971470244  0.7465199062
 C  1.3126882464 -0.6326710954 -0.1601226117
 H -0.3058567970 -1.2219065005 -1.7893729851
 H -0.5705620338 -1.2631561459  0.8521904716
 H -1.0848464473  1.3016142129 -1.0378530560
 H  1.6072622533  0.0951513708 -0.9369602771
 H  1.5864827356 -1.5719256592 -0.6386026663
 H  1.9426559501 -0.5259999350  0.7190065805
 H -1.8133188109 -1.1402163069 -1.1387422517
13
step 46
 O -0.9910678478  1.7998020785 -0.1845248175
 O -0.5400784599  1.2472233459  1.9284052785
 N -0.8919375272 -0.6468653270 -1.1896976453
 C -0.2225637677 -0.5083397878  0.1420260276
 C -0.5973886870  0.9044372290  0.7492805834
 C  1.3105152193 -0.6289393843 -0.1582216613
 H -0.3051970321 -1.2188795715 -1.7897592039
 H -0.5699996717 -1.2579906062  0.8606746792
 H -1.0782916091  1.3129361112 -1.0415014307
 H  1.6106474204  0.1011528467 -0.9403958393
 H  1.5819290728 -1.5613036047 -0.6317261637
 H  1.9399571371 -0.5239235249  0.7161016818
 H -1.8099144479 -1.1411955564 -1.1326435801
13
step 47
 O -0.9929399812  1.8011534431 -0.1836784568
 O -0.5431693643  1.2496844985  1.9276247113
 N -0.8938897233 -0.6435825131 -1.1874641054
 C -0.2224840475 -0.5059014618  0.1445629758
 C -0.5973949931  0.9116706725  0.7522963337
 C  1.3083934552 -0.6250226474 -0.1565090250
 H -0.3037305118 -1.2169571880 -1.7911610304
 H -0.5685891963 -1.2532649974  0.8690426225
 H -1.0713576176  1.3234445996 -1.0445963067
 H  1.6129697022  0.1069896453 -0.9408993875
 H  1.5761222247 -1.5524836221 -0.6240486981
 H  1.9369938129 -0.5211046594  0.7136986398
 H -1.8047026412 -1.1412966053 -1.1257643858
13
step 48
 O -0.9949145900  1.8027577029 -0.1830008074
 O -0.5462462320  1.2520397706  1.9267543156
 N -0.8959992142 -0.6402114898 -1.1851669543
 C -0.2223380201 -0.5034880428  0.1470596631
 C -0.5972940902  0.9187684585  0.7554669286
 C  1.3063103957 -0.6208483845 -0.1550025339
 H -0.3018503131 -1.2157641401 -1.7931703394
 H -0.5662977230 -1.2488913531  0.8770826255
 H -1.0640428498  1.3328626303 -1.0472021253
 H  1.6140531664  0.1123748781 -0.9382111795
 H  1.5692997843 -1.5462238397 -0.6160107036
 H  1.9340047196 -0.5174724563  0.7121866687
 H -1.7982160116 -1.1407711402 -1.1181410330
13
step 49
 O -0.9969937673  1.8046446777 -0.1824832305
 O -0.5493047768  1.2543164762  1.9258668956
 N -0.8981815365 -0.6367664284 -1.1828308203
 C -0.2221374812 -0.5010731229  0.1495281882
 C -0.5970891357  0.9256550152  0.7586830586
 C  1.3042524141 -0.6163729244 -0.1536990050
 H -0.3000384185 -1.2148418770 -1.7952911618
 H -0.5631103138 -1.2447899339  0.8845961902
 H -1.0563480912  1.3409509611 -1.0493833743
 H  1.6138173300  0.1171802796 -0.9323220125
 H  1.5616858162 -1.5430719090 -0.6079854665
 H  1.9311771812 -0.5129876264  0.7118753364
 H -1.7911657161 -1.1399754330 -1.1098039259
13
step 50
 O -0.9991784500  1.8068372982 -0.1821174117
 O -0.5523407826  1.2565421185  1.9250383828
 N -0.9003460230 -0.6332583469 -1.1804811054
 C -0.2218924417 -0.4986283185  0.1519787808