4
step 0
 N -0.0646313996 -0.0804946852  0.0521627758
 H  0.2763006209  0.6649095603  0.6800490960
 H  0.7915684524 -0.4457063844 -0.3946539545
 H -0.5475376717  0.4284915119 -0.7053579189
4
step 1
 N -0.0669628768 -0.0818534583  0.0477588455
 H  0.2709161652  0.6766858313  0.6883981620
 H  0.7945278727 -0.4470786923 -0.3991779856
 H -0.5427811590  0.4194463218 -0.7047790235
4
step 2
 N -0.0691908946 -0.0831903730  0.0434705843
 H  0.2649282083  0.6870045795  0.6954442530
 H  0.7971217609 -0.4481739962 -0.4033681550
 H -0.5387406528  0.4111337361 -0.7053056167
4
step 3
 N -0.0712125626 -0.0844841069  0.0394280379
 H  0.2579207322  0.6945983268  0.7000565968
 H  0.7990171668 -0.4487442216 -0.4068964302
 H -0.5360951442  0.4042779079 -0.7079386772
4
step 4
 N -0.0729602780 -0.0857209430  0.0357192522
 H  0.2496519901  0.6985920625  0.7014416034
 H  0.7999878172 -0.4486056460 -0.4095088974
 H -0.5353170906  0.3993788849 -0.7133640423
4
step 5
 N -0.0744118076 -0.0868894935  0.0323767338
 H  0.2400618165  0.6985506636  0.6991893485
 H  0.7999479395 -0.4476529112 -0.4110461118
 H -0.5365728527  0.3966062376 -0.7217892601
4
step 6
 N -0.0755932550 -0.0879790914  0.0293724670
 H  0.2292665395  0.6944979311  0.6932944940
 H  0.7989671030 -0.4458645734 -0.4114523203
 H -0.5396893262  0.3957643215 -0.7328824945
4
step 7
 N -0.0765744210 -0.0889838515  0.0266222284
 H  0.2175471965  0.6869227492  0.6841645514
 H  0.7972652099 -0.4433011670 -0.4107738460
 H -0.5441994726  0.3963418626 -0.7458382856
4
step 8
 N -0.0774580235 -0.0899107412  0.0239973593
 H  0.2053302883  0.6767700382  0.6726131420
 H  0.7951884953 -0.4400960569 -0.4091473086
 H -0.5494475880  0.3976247579 -0.7595437549
4
step 9
 N -0.0783652950 -0.0907873365  0.0213410363
 H  0.1931552522  0.6653959740  0.6598202604
 H  0.7931689173 -0.4364387832 -0.4067786786
 H -0.5547165511  0.3988318311 -0.7727863894
4
step 10
 N -0.0794201146 -0.0916642457  0.0184872228
 H  0.1816202737  0.6544536320  0.6472306580
 H  0.7916709853 -0.4325508624 -0.4039149102
 H -0.5593426863  0.3992376610 -0.7844473858
4
step 11
 N -0.0807328909 -0.0926084846  0.0152822943
 H  0.1713006603  0.6456774634  0.6363643709
 H  0.7911317704 -0.4286554812 -0.4008111656
 H -0.5628004078  0.3982644087 -0.7936498020
4
step 12
 N -0.0823851221 -0.0936874911  0.0116092338
 H  0.1626452964  0.6405681051  0.6285424100
 H  0.7919010213 -0.4249447817 -0.3976979835
 H -0.5647549544  0.3955412106 -0.7998563507
4
step 13
 N -0.0844163448 -0.0949487285  0.0074112236
 H  0.1558757272  0.6400459147  0.6245872350
 H  0.7941885900 -0.4215504677 -0.3947533865
 H -0.5650901247  0.3909379138 -0.8029253253
4
step 14
 N -0.0868162218 -0.0964043404  0.0027076155
 H  0.1509267451  0.6442044381  0.6246096134
 H  0.7980261036 -0.4185240634 -0.3920844553
 H -0.5639184844  0.3845797804 -0.8031340483
4
step 15
 N -0.0895243066 -0.0980292729 -0.0024047872
 H  0.1474582432  0.6522837399  0.6279828576
 H  0.8032496276 -0.4158315345 -0.3897214962
 H -0.5615764286  0.3768442865 -0.8011716019
4
step 16
 N -0.0924381302 -0.0997734054 -0.0077667774
 H  0.1449344507  0.6628775038  0.6335160553
 H  0.8095092062 -0.4133636464 -0.3876259763
 H -0.5585988456  0.3683339561 -0.7980917320
4
step 17
 N -0.0954280989 -0.1015796449 -0.0131833598
 H  0.1427348343  0.6742699002  0.6397393596
 H  0.8163077011 -0.4109594074 -0.3857107107
 H -0.5556622388  0.3598141423 -0.7952088576
4
step 18
 N -0.0983567107 -0.1033979513 -0.0184549719
 H  0.1402565059  0.6847657062  0.6451866010
 H  0.8230649526 -0.4084366581 -0.3838679371
 H -0.5534865812  0.3521070355 -0.7939231477
4
step 19
 N -0.1010993752 -0.1051900621 -0.0234079094
 H  0.1369862411  0.6929299573  0.6486037092
 H  0.8291962834 -0.4056230506 -0.3819991370
 H -0.5526993692  0.3459469971 -0.7954816901
4
step 20
 N -0.1035635800 -0.1069263230 -0.0279200193
 H  0.1325403132  0.6977238595  0.6490702400
 H  0.8341906745 -0.4023822075 -0.3800406238
 H -0.5536889743  0.3418257814 -0.8007205754
4
step 21
 N -0.1057025296 -0.1085802713 -0.0319377136
 H  0.1266806546  0.6985646345  0.6460561492
 H  0.8376753235 -0.3986324946 -0.3779808121
 H -0.5564954732  0.3398764120 -0.8098672851
4
step 22
 N -0.1075200639 -0.1101268302 -0.0354810001
 H  0.1193170774  0.6953445453  0.6394428922
 H  0.8394581933 -0.3943579841 -0.3758675417
 H -0.5607849552  0.3398412620 -0.8224805738
4
step 23
 N -0.1090662643 -0.1115467225 -0.0386363118
 H  0.1105019485  0.6884328270  0.6295284037
 H  0.8395455868 -0.3896119537 -0.3738057843
 H -0.5659202192  0.3411364693 -0.8375524409
4
step 24
 N -0.1104261862 -0.1128353738 -0.0415407797
 H  0.1004190550  0.6786656894  0.6170198747
 H  0.8381355283 -0.3845130443 -0.3719471122
 H -0.5710978906  0.3429828080 -0.8537267781
4
step 25
 N -0.1117054389 -0.1140117558 -0.0443629190
 H  0.0893640178  0.6673101483  0.6030019851
 H  0.8355895020 -0.3792338681 -0.3704725755
 H -0.5755010054  0.3445533109 -0.8695532050
4
step 26
 N -0.1130154161 -0.1151221751 -0.0472826541
 H  0.0777107768  0.6559715567  0.5888554209
 H  0.8323859823 -0.3739819826 -0.3695706602
 H -0.5784260052  0.3450983518 -0.8837084860
4
step 27
 N -0.1144592970 -0.1162353014 -0.0504705471
 H  0.0658593855  0.6464102390  0.5760979271
 H  0.8290602473 -0.3689741905 -0.3694122212
 H -0.5793673999  0.3440327478 -0.8951560752
4
step 28
 N -0.1161190807 -0.1174274274 -0.0540650481
 H  0.0541673014  0.6402535089  0.5661387408
 H  0.8261364652 -0.3644070247 -0.3701247971
 H -0.5780633188  0.3409882293 -0.9032461389
4
step 29
 N -0.1180443733 -0.1187613903 -0.0581489479
 H  0.0428795935  0.6386456925  0.5599840503
 H  0.8240595988 -0.3604282744 -0.3717693506
 H -0.5745136759  0.3358418995 -0.9077719441
4
step 30
 N -0.1202446989 -0.1202675216 -0.0627305385
 H  0.0320848703  0.6419498028  0.5579879870
 H  0.8231357633 -0.3571154024 -0.3743228953
 H -0.5689814503  0.3287293408 -0.9089965215
4
step 31
 N -0.1226873978 -0.1219361862 -0.0677370817
 H  0.0217189882  0.6496365213  0.5597592254
 H  0.8234901068 -0.3544657393 -0.3776704817
 H -0.5619804664  0.3200439050 -0.9076523333
4
step 32
 N -0.1253021324 -0.1237256003 -0.0730248714
 H  0.0116145306  0.6604198916  0.5642698600
 H  0.8250506097 -0.3524004028 -0.3816094013
 H -0.5542437437  0.3104149262 -0.9049017666
4
step 33
 N -0.1279915511 -0.1255792476 -0.0784037771
 H  0.0015698541  0.6725720118  0.5701107353
 H  0.8275631543 -0.3507801399 -0.3858666916
 H -0.5466593842  0.3006509106 -0.9022337980
4
step 34
 N -0.1306467969 -0.1274423664 -0.0836702187
 H -0.0085917806  0.6842786967  0.5757817761
 H  0.8306369179 -0.3494282628 -0.3901279034
 H -0.5401619253  0.2916345511 -0.9012717725
4
step 35
 N -0.1331659285 -0.1292699706 -0.0886424328
 H -0.0189873456  0.6939252938  0.5799279997
 H  0.8338113367 -0.3481548828 -0.3940718257
 H -0.5355814982  0.2841706708 -0.9034908800
4
step 36
 N -0.1354720813 -0.1310259356 -0.0931923999
 H -0.0296619889  0.7002739500  0.5814894626
 H  0.8366303153 -0.3467780713 -0.3974043490
 H -0.5334800000  0.2788161065 -0.9098948554
4
step 37
 N -0.1375269031 -0.1326784422 -0.0972680950
 H -0.0405919197  0.7025488131  0.5797775435
 H  0.8387089438 -0.3451401927 -0.3998857071
 H -0.5340281305  0.2757475680 -0.9207556673
4
step 38
 N -0.1393353214 -0.1341983348 -0.1009003904
 H -0.0516953944  0.7004650094  0.5745056532
 H  0.8397824551 -0.3431197330 -0.4013481039
 H -0.5369748861  0.2747229873 -0.9355264539
4
step 39
 N -0.1409407920 -0.1355636739 -0.1041935880
 H -0.0628481229  0.6942311817  0.5657976983
 H  0.8397335398 -0.3406395303 -0.4017035371
 H -0.5417225301  0.2751521977 -0.9529681313
4
step 40
 N -0.1424139133 -0.1367688417 -0.1073047629
 H -0.0739016737  0.6845382333  0.5541838503
 H  0.8385992051 -0.3376717575 -0.4009433128
 H -0.5474712404  0.2762408702 -0.9714288765
4
step 41
 N -0.1438388819 -0.1378335208 -0.1104196283
 H -0.0847042439  0.6725274979  0.5405775219
 H  0.8365606653 -0.3342391304 -0.3991311099
 H -0.5533763452  0.2771483897 -0.9891632193
4
step 42
 N -0.1453011838 -0.1388067303 -0.1137299516
 H -0.0951227904  0.6597146564  0.5262140932
 H  0.8339198040 -0.3304112427 -0.3963911681
 H -0.5586753801  0.2771153577 -1.0045996064
4
step 43
 N -0.1468778500 -0.1397625918 -0.1174129625
 H -0.1050642816  0.6478371515  0.5125256133
 H  0.8310648199 -0.3262951081 -0.3928927980
 H -0.5627704797  0.2755463891 -1.0165216164
4
step 44
 N -0.1486301288 -0.1407867518 -0.1216106306
 H -0.1144920155  0.6386036406  0.5009350230
 H  0.8284267027 -0.3220200027 -0.3888322910
 H -0.5652725216  0.2720555661 -1.0241723118
4
step 45
 N -0.1505979507 -0.1419558262 -0.1264079169
 H -0.1234317061  0.6333662322  0.4925874569
 H  0.8264278158 -0.3177183112 -0.3844135130
 H -0.5660210885  0.2664890876 -1.0273082028
4
step 46
 N -0.1527957212 -0.1433166841 -0.1318132075
 H -0.1319634718  0.6328023700  0.4880884817
 H  0.8254248447 -0.3135057295 -0.3798289529
 H -0.5650923278  0.2589366339 -1.0262253734
4
step 47
 N -0.1552094156 -0.1448748593 -0.1377477420
 H -0.1402012220  0.6367357299  0.4873524328
 H  0.8256514252 -0.3094650041 -0.3752435911
 H -0.5627995610  0.2497349227 -1.0217651872
4
step 48
 N -0.1577956265 -0.1465979010 -0.1440501547
 H -0.1482673473  0.6441857858  0.4896327841
 H  0.8271705446 -0.3056367197 -0.3707844002
 H -0.5596815423  0.2394570621 -1.0152869657
4
step 49
 N -0.1604840821 -0.1484309051 -0.1504973115
 H -0.1562723056  0.6536233238  0.4937183216
 H  0.8298503479 -0.3020186134 -0.3665379959
 H -0.5564630803  0.2288725237 -1.0085758225
4
step 50
 N -0.1631855926 -0.1503146114 -0.1568378201
 H -0.1643040461  0.6633150819  0.4982046083
 H  0.8333747631 -0.2985723854 -0.3625572215
 H -0.5539678868  0.2188595762 -1.0036458118
4
step 51
 N -0.1658063494 -0.1521968130 -0.1628326565
 H -0.1724260393  0.6716344887  0.5017439486
 H  0.8372909887 -0.2952350424 -0.3588745015
 H -0.5529728986  0.2102623691 -1.0024187187
4
step 52
 N -0.1682665702 -0.1540341448 -0.1682962257
 H -0.1806800135  0.6772747799  0.5032221676
 H  0.8410834846 -0.2919314915 -0.3555173742
 H -0.5540232577  0.2037136100 -1.0063200581
4
step 53
 N -0.1705179081 -0.1557883310 -0.1731287966
 H -0.1890907459  0.6793628673  0.5018588930
 H  0.8442557039 -0.2885862769 -0.3525211940
 H -0.5572676560  0.1994801071 -1.0159165420
4
step 54
 N -0.1725528065 -0.1574240057 -0.1773306899
 H -0.1976725034  0.6775034251  0.4972529690
 H  0.8464007907 -0.2851338217 -0.3499356444
 H -0.5623903162  0.1973999743 -1.0307535142
4
step 55
 N -0.1744022690 -0.1589126139 -0.1809943277
 H -0.2064377583  0.6717845043  0.4893966335
 H  0.8472495026 -0.2815270524 -0.3478242575
 H -0.5686778786  0.1969417721 -1.0494738436
4
step 56
 N -0.1761243425 -0.1602413554 -0.1842798378
 H -0.2154082688  0.6627624667  0.4786715989
 H  0.8466925331 -0.2777437482 -0.3462583925
 H -0.5751883936  0.1973515380 -1.0701547004
4
step 57
 N -0.1777892115 -0.1614223409 -0.1873851377
 H -0.2246271055  0.6514260996  0.4658259969
 H  0.8447805771 -0.2737895451 -0.3453082427
 H -0.5809463819  0.1978189748 -1.0907090027
4
step 58
 N -0.1794661019 -0.1624970066 -0.1905187016
 H -0.2341683680  0.6391237704  0.4519185932
 H  0.8417076588 -0.2696966062 -0.3450332658
 H -0.5851003143  0.1976092056 -1.1092211820
4
step 59
 N -0.1812143178 -0.1635327614 -0.1938769112
 H -0.2441395578  0.6274286733  0.4382102315
 H  0.8377827486 -0.2655175769 -0.3454735278
 H -0.5870191305  0.1961433094 -1.1241671721
4
step 60
 N -0.1830783770 -0.1646111320 -0.1976237144
 H -0.2546706198  0.6179235924  0.4259884029
 H  0.8333932025 -0.2613155093 -0.3466424605
 H -0.5863363963  0.1930374843 -1.1345329549
4
step 61
 N -0.1850861411 -0.1658093984 -0.2018704766
 H -0.2658855969  0.6119173645  0.4163360857
 H  0.8289621484 -0.2571516256 -0.3485209183
 H -0.5829625078  0.1881188771 -1.1398702509
4
step 62
 N -0.1872485330 -0.1671811458 -0.2066573298
 H -0.2778598539  0.6101571519  0.4098973282
 H  0.8249013607 -0.2530736867 -0.3510523521
 H -0.5770826684  0.1814323630 -1.1403230764
4
step 63
 N -0.1895594962 -0.1687435101 -0.2119410369
 H -0.2905763818  0.6126413246  0.4067234418
 H  0.8215620794 -0.2491078427 -0.3541394044
 H -0.5691489568  0.1732440315 -1.1366402965
4
step 64
 N -0.1919955207 -0.1704769957 -0.2175950678
 H -0.3039008370  0.6186195775  0.4062681026
 H  0.8191889554 -0.2452557723 -0.3576431258
 H -0.5598630203  0.1640373108 -1.1301651465
4
step 65
 N -0.1945155894 -0.1723372159 -0.2234245930
 H -0.3175885138  0.6267835061  0.4075333171
 H  0.8178856602 -0.2414969437 -0.3613867490
 H -0.5501346224  0.1544882849 -1.1227675128
4
step 66
 N -0.1970639971 -0.1742713173 -0.2291953398
 H -0.3313203310  0.6355637759  0.4093001030
 H  0.8176017172 -0.2377939464 -0.3651656286
 H -0.5409952264  0.1454009707 -1.1166672946
4
step 67
 N -0.1995784642 -0.1762303664 -0.2346731071
 H -0.3447522165  0.6434250860  0.4103589037
 H  0.8181461616 -0.2340980986 -0.3687631337
 H -0.5334531969  0.1375879411 -1.1141067755
4
step 68
 N -0.2020033400 -0.1781732480 -0.2396685152
 H -0.3575614634  0.6490878920  0.4096845577
 H  0.8192255044 -0.2303534630 -0.3719698209
 H -0.5283051442  0.1317049247 -1.1168906442
4
step 69
 N -0.2043035802 -0.1800641571 -0.2440770208
 H -0.3694816445  0.6516599695  0.4065427284
 H  0.8204954876 -0.2264995108 -0.3746017747
 H -0.5259591926  0.1280866668 -1.1259192779
4
step 70
 N -0.2064728964 -0.1818699984 -0.2479007989
 H -0.3803263914  0.6506953950  0.4005412531
 H  0.8216130808 -0.2224743261 -0.3765144659
 H -0.5263476547  0.1266563619 -1.1409178286
4
step 71
 N -0.2085319341 -0.1835629173 -0.2512439239
 H -0.3900064203  0.6462071104  0.3916460892
 H  0.8222784626 -0.2182199484 -0.3776103439
 H -0.5289736381  0.1269557339 -1.1605046066
4
step 72
 N -0.2105181403 -0.1851279863 -0.2542849285
 H -0.3985428955  0.6386512235  0.3801748007
 H  0.8222633074 -0.2136896726 -0.3778404447
 H -0.5330641155  0.1282763932 -1.1825592728
4
step 73
 N -0.2124730334 -0.1865716293 -0.2572403002
 H -0.4060759764  0.6288868091  0.3667693156
 H  0.8214269295 -0.2088555190 -0.3772015256
 H -0.5377542467  0.1298246673 -1.2047053840
4
step 74
 N -0.2144321692 -0.1879258187 -0.2603311866
 H -0.4128631232  0.6181014703  0.3523398702
 H  0.8197235676 -0.2037134895 -0.3757305249
 H -0.5422378808  0.1308583962 -1.2247264877
4
step 75
 N -0.2164201791 -0.1892451729 -0.2637578185
 H -0.4192593706  0.6076855859  0.3379675972
 H  0.8172031039 -0.1982848839 -0.3734978210
 H -0.5458599512  0.1307719216 -1.2408365327
4
step 76
 N -0.2184506567 -0.1905965605 -0.2676799471
 H -0.4256730857  0.5990430669  0.3247581969
 H  0.8140055168 -0.1926133217 -0.3706001243
 H -0.5481590539  0.1291365501 -1.2518168466
4
step 77
 N -0.2205292189 -0.1920432200 -0.2722002766
 H -0.4324977292  0.5933496809  0.3136572126
 H  0.8103476248 -0.1867585164 -0.3671532694
 H -0.5488803874  0.1257150407 -1.2570697780
4
step 78
 N -0.2226573338 -0.1936279700 -0.2773502333
 H -0.4400327480  0.5913085187  0.3052654728
 H  0.8065000002 -0.1807888312 -0.3632849503
 H -0.5479769944  0.1204663171 -1.2566361419
4
step 79
 N -0.2248343609 -0.1953617740 -0.2830805592
 H -0.4484187624  0.5929830782  0.2997141572
 H  0.8027530096 -0.1747748790 -0.3591275709
 H -0.5456092650  0.1135488224 -1.2512024867
4
step 80
 N -0.2270562208 -0.1972226111 -0.2892605424
 H -0.4576125781  0.5977782559  0.2966491908
 H  0.7993742573 -0.1687857112 -0.3548117713
 H -0.5421429592  0.1053217194 -1.2420971943
4
step 81
 N -0.2293113818 -0.1991648259 -0.2956885759
 H -0.4674113877  0.6045807380  0.2953307888
 H  0.7965646165 -0.1628876717 -0.3504616360
 H -0.5381356803  0.0963339290 -1.2312459521
4
step 82
 N -0.2315773254 -0.2011337431 -0.3021148887
 H -0.4775132494  0.6120019246  0.2948055164
 H  0.7944239392 -0.1571444344 -0.3461926763
 H -0.5342927185  0.0872834552 -1.2210328039
4
step 83
 N -0.2338215020 -0.2030781804 -0.3082761220
 H -0.4875888382  0.6186377733  0.2940896648
 H  0.7929370863 -0.1516158615 -0.3421129804
 H -0.5313715615  0.0789282260 -1.2140085361
4
step 84
 N -0.2360089619 -0.2049559484 -0.3139393587
 H -0.4973431793  0.6232805444  0.2923185378
 H  0.7919854583 -0.1463550387 -0.3383261542
 H -0.5300291865  0.0719457589 -1.2124318801
4
step 85
 N -0.2381143949 -0.2067325023 -0.3189477789
 H -0.5065580497  0.6250569275  0.2888455747
 H  0.7913786190 -0.1414026068 -0.3349344802
 H -0.5306452946  0.0667698501 -1.2177335310
4
step 86
 N -0.2401324642 -0.2083778837 -0.3232533397
 H -0.5151166942  0.6234995021  0.2832962495
 H  0.7908950711 -0.1367823750 -0.3320393280
 H -0.5331929470  0.0634733141 -1.2301120668
4
step 87
 N -0.2420799767 -0.2098675846 -0.3269226317
 H -0.5230169105  0.6185695087  0.2755895218
 H  0.7903188728 -0.1325001020 -0.3297378054
 H -0.5372281385  0.0617581933 -1.2484702086
4
step 88
 N -0.2439885435 -0.2111887707 -0.3301143502
 H -0.5303771950  0.6106459230  0.2659364500
 H  0.7894644925 -0.1285462934 -0.3281158560
 H -0.5420072531  0.0610578669 -1.2707272524
4
step 89
 N -0.2458923279 -0.2123481968 -0.3330409330
 H -0.5374360247  0.6004854093  0.2548179911
 H  0.7881894448 -0.1249012835 -0.3272395730
 H -0.5466699369  0.0606925857 -1.2943372501
4
step 90
 N -0.2478172528 -0.2133766018 -0.3359300868
 H -0.5445394064  0.5891472740  0.2429367908
 H  0.7863988371 -0.1215400140 -0.3271471202
 H -0.5504079930  0.0600092516 -1.3167871434
4
step 91
 N -0.2497756065 -0.2143263918 -0.3389946826
 H -0.5521091669  0.5778726066  0.2311347437
 H  0.7840465464 -0.1184345214 -0.3278431295
 H -0.5525764560  0.0584706882 -1.3359443490
4
step 92
 N -0.2517666507 -0.2152623320 -0.3424112750
 H -0.5605859644  0.5679122635  0.2202724925
 H  0.7811357891 -0.1155536346 -0.3292962731
 H -0.5527453780  0.0556964446 -1.3502422418
4
step 93
 N -0.2537816107 -0.2162474328 -0.3463041505
 H -0.5703484333  0.5603174309  0.2110808651
 H  0.7777192421 -0.1128608719 -0.3314396098
 H -0.5507123032  0.0514735189 -1.3587544929
4
step 94
 N -0.2558102869 -0.2173282167 -0.3507328869
 H -0.5816229875  0.5557351052  0.2040144650
 H  0.7738968784 -0.1103123926 -0.3341727912
 H -0.5464970561  0.0457549027 -1.3612167305
4
step 95
 N -0.2578461971 -0.2185245542 -0.3556839848
 H -0.5944115087  0.5542714410  0.1991520459
 H  0.7698089616 -0.1078568466 -0.3373653524
 H -0.5403326694  0.0386565406 -1.3580344057
4
step 96
 N -0.2598879194 -0.2198280109 -0.3610686995
 H -0.6084655086  0.5554757088  0.1961811160
 H  0.7656224996 -0.1054380867 -0.3408609226
 H -0.5326559813  0.0304548912 -1.3502875669
4
step 97
 N -0.2619363483 -0.2212089898 -0.3667291181
 H -0.6233195112  0.5584529901  0.1944729635
 H  0.7615117713 -0.1030002055 -0.3444829101
 H -0.5240913400  0.0215794222 -1.3397128048
4
step 98
 N -0.2639900891 -0.2226288774 -0.3724539641
 H -0.6383720447  0.5620626762  0.1932184725
 H  0.7576363634 -0.1004928736 -0.3480425870
 H -0.5154125633  0.0125877077 -1.3286130852
4
step 99
 N -0.2660426091 -0.2240515187 -0.3780055943
 H -0.6529864407  0.5651369177  0.1915789480
 H  0.7541218337 -0.0978743431 -0.3513501182
 H -0.5074655007  0.0041076130 -1.3196282872
4
step 100
 N -0.2680839057 -0.2254495973 -0.3831587599
 H -0.6665840466  0.5666660067  0.1888150562
 H  0.7510473249 -0.0951103716 -0.3542279376
 H -0.5010429698 -0.0032626637 -1.3153191571
4
step 101
 N -0.2701063943 -0.2268050163 -0.3877468351
 H -0.6787143640  0.5659269905  0.1843775004
 H  0.7484412795 -0.0921696296 -0.3565245406
 H -0.4967305795 -0.0090837144 -1.3176057155
4
step 102
 N -0.2721111038 -0.2281062710 -0.3917025315
 H -0.6890998215  0.5625559942  0.1779599933
 H  0.7462827392 -0.0890186217 -0.3581261158
 H -0.4947761777 -0.0131882513 -1.3272409645
4
step 103
 N -0.2741090666 -0.2293474727 -0.3950755308
 H -0.6976603439  0.5565751083  0.1695221255
 H  0.7445042828 -0.0856199256 -0.3589638646
 H -0.4950453883 -0.0157212722 -1.3435747743
4
step 104
 N -0.2761159031 -0.2305313661 -0.3980181098
 H -0.7045227926  0.5483834193  0.1592883231
 H  0.7429947116 -0.0819356736 -0.3590159728
 H -0.4970863778 -0.0170835054 -1.3647435813
4
step 105
 N -0.2781426474 -0.2316743146 -0.4007469907
 H -0.7100150756  0.5387148320  0.1477236251
 H  0.7416032905 -0.0779348750 -0.3583044187
 H -0.5002659246 -0.0178117349 -1.3881765448
4
step 106
 N -0.2801882517 -0.2328089478 -0.4034992100
 H -0.7146387544  0.5285584412  0.1354820415
 H  0.7401492313 -0.0736009219 -0.3568879054
 H -0.5039118391 -0.0184556820 -1.4111668403
4
step 107
 N -0.2822376468 -0.2339813533 -0.4064954259
 H -0.7190118301  0.5190351929  0.1233225405
 H  0.7384385961 -0.0689358291 -0.3548529169
 H -0.5074172482 -0.0194913289 -1.4313125410
4
step 108
 N -0.2842660480 -0.2352424200 -0.4099143881
 H -0.7237781701  0.5112315521  0.1119937906
 H  0.7362873287 -0.0639597938 -0.3523048255
 H -0.5102974241 -0.0212770955 -1.4467707843
4
step 109
 N -0.2862475363 -0.2366354623 -0.4138764060
 H -0.7294926031  0.5060086448  0.1021020679
 H  0.7335460495 -0.0587070012 -0.3493602277
 H -0.5122115394 -0.0240399063 -1.4563655195
4
step 110
 N -0.2881643875 -0.2381840528 -0.4184330539
 H -0.7365073271  0.5038282819  0.0939924661
 H  0.7301210411 -0.0532200451 -0.3461407870
 H -0.5129665900 -0.0278752744 -1.4596160150
4
step 111
 N -0.2900133304 -0.2398845515 -0.4235621110
 H -0.7448955910  0.5046495104  0.0876805243
 H  0.7259867123 -0.0475454452 -0.3427682703
 H -0.5125164854 -0.0327505575 -1.4567385920
4
step 112
 N -0.2918061921 -0.2417063692 -0.4291680701
 H -0.7544411825  0.5079343720  0.0828591283
 H  0.7211872221 -0.0417316761 -0.3393603455
 H -0.5109621362 -0.0385072351 -1.4486448553
4
step 113
 N -0.2935649864 -0.2435998095 -0.4350888118
 H -0.7646971908  0.5127616878  0.0789771356
 H  0.7158280226 -0.0358294687 -0.3360269391
 H -0.5085506523 -0.0448643472 -1.4369277402
4
step 114
 N -0.2953141387 -0.2455081682 -0.4411092793
 H -0.7750906085  0.5180081914  0.0753598462
 H  0.7100608313 -0.0298926920 -0.3328673617
 H -0.5056641504 -0.0514308467 -1.4237955918
4
step 115
 N -0.2970738006 -0.2473794424 -0.4469839419
 H -0.7850378756  0.5225420931  0.0713336072
 H  0.7040668919 -0.0239775058 -0.3299687137
 H -0.5027829573 -0.0577388118 -1.4118910962
4
step 116
 N -0.2988574804 -0.2491738874 -0.4524701627
 H -0.7940433955  0.5253871223  0.0663274592
 H  0.6980426021 -0.0181382082 -0.3274059869
 H -0.5004091365 -0.0633086661 -1.4039357529
4
step 117
 N -0.3006747405 -0.2508660527 -0.4573712625
 H -0.8017684986  0.5258387913  0.0599417643
 H  0.6921886752 -0.0124202539 -0.3252437870
 H -0.4989516263 -0.0677455389 -1.4022029281
4
step 118
 N -0.3025363332 -0.2524428727 -0.4615798633
 H -0.8080714775  0.5235331413  0.0519862022
 H  0.6867002030 -0.0068533523 -0.3235389695
 H -0.4986046395 -0.0708412988 -1.4079504479
4
step 119
 N -0.3044568953 -0.2539014155 -0.4651045078
 H -0.8130251118  0.5184757395  0.0424937201
 H  0.6817528361 -0.0014487011 -0.3223430825
 H -0.4992759570 -0.0726358944 -1.4210566866
4
step 120
 N -0.3064516751 -0.2552491563 -0.4680659019
 H -0.8169165956  0.5110369133  0.0317148121
 H  0.6774820980  0.0037970064 -0.3217034968
 H -0.5006080431 -0.0734025942 -1.4400588289
4
step 121
 N -0.3085284421 -0.2565063225 -0.4706647197
 H -0.8202291451  0.5019129013  0.0200917452
 H  0.6739582594  0.0088919248 -0.3216624760
 H -0.5020815895 -0.0735656494 -1.4625713716
4
step 122
 N -0.3106796521 -0.2577070443 -0.4731368172
 H -0.8235989425  0.4920471065  0.0082087123
 H  0.6711646867  0.0138381879 -0.3222541531
 H -0.5031465156 -0.0735951058 -1.4858629979
4
step 123
 N -0.3128798427 -0.2588961578 -0.4757121826
 H -0.8277397782  0.4825057114 -0.0032855890
 H  0.6689888307  0.0186247141 -0.3235000656
 H -0.5033273833 -0.0739213271 -1.5073594727
4
step 124
 N -0.3150900976 -0.2601208889 -0.4785851863
 H -0.8333341896  0.4743114640 -0.0137799686
 H  0.6672311679  0.0232264397 -0.3254041606
 H -0.5022823074 -0.0748854071 -1.5249659668
4
step 125
 N -0.3172679362 -0.2614193821 -0.4818959843
 H -0.8409042419  0.4682586323 -0.0228123812
 H  0.6656311234  0.0276095104 -0.3279480125
 H -0.4998223221 -0.0767196727 -1.5372217386
4
step 126
 N -0.3193787238 -0.2628099553 -0.4857203501
 H -0.8506922486  0.4647531509 -0.0301638933
 H  0.6639038291  0.0317395888 -0.3310866612
 H -0.4959082804 -0.0795451187 -1.5433505078
4
step 127
 N -0.3214042205 -0.2642852875 -0.4900658183
 H -0.8625901132  0.4637286734 -0.0359047283
 H  0.6617795773  0.0355898955 -0.3347452973
 H -0.4906397905 -0.0833748701 -1.5432668167
4
step 128
 N -0.3233453480 -0.2658140175 -0.4948730093
 H -0.8761447686  0.4646688552 -0.0403755380
 H  0.6590389147  0.0391467146 -0.3388171027
 H -0.4842435159 -0.0881180739 -1.5375730285
4
step 129
 N -0.3252190118 -0.2673491012 -0.5000214701
 H -0.8906389890  0.4667261848 -0.0441114887
 H  0.6555390495  0.0424119256 -0.3431628532
 H -0.4770609545 -0.0935839661 -1.5275507347
4
step 130
 N -0.3270513512 -0.2688396127 -0.5053400628
 H -0.9052194582  0.4688940752 -0.0477364327
 H  0.6512299835  0.0454036387 -0.3476131600
 H -0.4695302286 -0.0994905819 -1.5151198587
4
step 131
 N -0.3288707693 -0.2702418943 -0.5106234430
 H -0.9190342082  0.4701817632 -0.0518578101
 H  0.6461604968  0.0481566691 -0.3519742871
 H -0.4621534228 -0.1054863132 -1.5027126077
4
step 132
 N -0.3307033035 -0.2715269867 -0.5156574718
 H -0.9313504012  0.4697577631 -0.0569824618
 H  0.6404745109  0.0507241261 -0.3560381345
 H -0.4554425292 -0.1111934776 -1.4930003028
4
step 133
 N -0.3325710170 -0.2726831730 -0.5202549252
 H -0.9416398375  0.4670500092 -0.0634596771
 H  0.6343978075  0.0531798120 -0.3595961773
 H -0.4498455785 -0.1162769955 -1.4884450100
4
step 134
 N -0.3344920068 -0.2737145789 -0.5242965264
 H -0.9496328029  0.4618058600 -0.0714486044
 H  0.6282142895  0.0556190811 -0.3624561579
 H -0.4456694611 -0.1205250175 -1.4907462545
4
step 135
 N -0.3364794301 -0.2746384000 -0.5277636260
 H -0.9553463759  0.4541192792 -0.0809047552
 H  0.6222310284  0.0581545815 -0.3644595133
 H -0.4430282030 -0.1239092065 -1.5003791997
4
step 136
 N -0.3385377329 -0.2754832956 -0.5307465785
 H -0.9590912899  0.4444286579 -0.0915829980
 H  0.6167334645  0.0609043331 -0.3654970250
 H -0.4418403230 -0.1265909891 -1.5164532114
4
step 137
 N -0.3406569365 -0.2762892888 -0.5334233563
 H -0.9614545064  0.4334818708 -0.1030590744
 H  0.6119365713  0.0639731725 -0.3655200743
 H -0.4418742089 -0.1288679213 -1.5369713278
4
step 138
 N -0.3428083891 -0.2771069051 -0.5360186018
 H -0.9632472660  0.4222600475 -0.1147750339
 H  0.6079424487  0.0674326607 -0.3645453622
 H -0.4428165081 -0.1310892273 -1.5593487602
4
step 139
 N -0.3449457019 -0.2779927308 -0.5387599183
 H -0.9654069047  0.4118523576 -0.1261129343
 H  0.6047159645  0.0713064749 -0.3626524327
 H -0.4443351507 -0.1335789852 -1.5809532118
4
step 140
 N -0.3470125578 -0.2790003679 -0.5418430199
 H -0.9688496925  0.4032857538 -0.1364948219
 H  0.6020857789  0.0755653379 -0.3599746141
 H -0.4461221252 -0.1365882945 -1.5995040813
4
step 141
 N -0.3489558196 -0.2801686740 -0.5454089190
 H -0.9742950403  0.3973336250 -0.1454918561
 H  0.5997708190  0.0801339404 -0.3566866610
 H -0.4479157423 -0.1402755108 -1.6132967366
4
step 142
 N -0.3507396562 -0.2815110978 -0.5495317635
 H -0.9821048094  0.3943525670 -0.1529151862
 H  0.5974244340  0.0849045485 -0.3529905159
 H -0.4495092739 -0.1447048809 -1.6212950759
4
step 143
 N -0.3523553617 -0.2830104734 -0.5542149856
 H -0.9921935724  0.3942015517 -0.1588566430
 H  0.5946854887  0.0897531208 -0.3491012385
 H -0.4507535204 -0.1498530909 -1.6231549619
4
step 144
 N -0.3538233276 -0.2846216565 -0.5593937837
 H -1.0040451994  0.3962742161 -0.1636636326
 H  0.5912266305  0.0945537458 -0.3452336303
 H -0.4515584125 -0.1556178137 -1.6192231795
4
step 145
 N -0.3551872670 -0.2862810474 -0.5649422191
 H -1.0168281587  0.3996301161 -0.1678588502
 H  0.5867938289  0.0991899229 -0.3415895878
 H -0.4518953968 -0.1618266775 -1.6105277618
4
step 146
 N -0.3565039608 -0.2879194445 -0.5706839575
 H -1.0295650058  0.4031758873 -0.1720347308
 H  0.5812352954  0.1035634659 -0.3383461870
 H -0.4517988422 -0.1682484207 -1.5987452157
4
step 147
 N -0.3578327179 -0.2894742515 -0.5764074259
 H -1.0413035748  0.4058431146 -0.1767535697
 H  0.5745203028  0.1076028699 -0.3356449495
 H -0.4513614588 -0.1746102851 -1.5861030595
4
step 148
 N -0.3592275907 -0.2908983929 -0.5818880015
 H -1.0512548534  0.4067298985 -0.1824716397
 H  0.5667488771  0.1112725478 -0.3335833109
 H -0.4507168873 -0.1806264295 -1.5751607884
4
step 149
 N -0.3607333710 -0.2921650862 -0.5869195859
 H -1.0588865710  0.4051974576 -0.1894911639
 H  0.5581522172  0.1145826188 -0.3322097028
 H -0.4500047075 -0.1860395052 -1.5684288849
4
step 150
 N -0.3623844374 -0.2932690670 -0.5913533187
 H -1.0639778474  0.4009279290 -0.1979353587
 H  0.5490816849  0.1175964962 -0.3315236624
 H -0.4493218762 -0.1906696305 -1.5678577300
4
step 151
 N -0.3642041166 -0.2942257493 -0.5951330407
 H -1.0666451681  0.3939526550 -0.2077401115
 H  0.5399823907  0.1204314748 -0.3314819721
 H -0.4486780081 -0.1944542449 -1.5743447300
4
step 152
 N -0.3662021526 -0.2950697519 -0.5983119984
 H -1.0673457557  0.3846552711 -0.2186590337
 H  0.5313475493  0.1232474666 -0.3320109686
 H -0.4479786270 -0.1974587152 -1.5874793506
4
step 153
 N -0.3683697920 -0.2958530058 -0.6010410657
 H -1.0668549861  0.3737454935 -0.2302836740
 H  0.5236538090  0.1262222886 -0.3330238351
 H -0.4470485680 -0.1998500700 -1.6056639786
4
step 154
 N -0.3706750148 -0.2966410726 -0.6035331880
 H -1.0662046810  0.3621924538 -0.2420846129
 H  0.5172857311  0.1295176535 -0.3344400218
 H -0.4456835392 -0.2018469720 -1.6265457997
4
step 155
 N -0.3730621937 -0.2975058239 -0.6060191156
 H -1.0665656008  0.3511056337 -0.2534790795
 H  0.5124656730  0.1332450536 -0.3362024806
 H -0.4437037938 -0.2036691529 -1.6475499798
4
step 156
 N -0.3754593386 -0.2985139614 -0.6087083653
 H -1.0690679994  0.3415623436 -0.2639241766
 H  0.5092079893  0.1374419791 -0.3382882650
 H -0.4409899864 -0.2055023200 -1.6663237617
4
step 157
 N -0.3777925511 -0.2997132857 -0.6117618762
 H -1.0745815046  0.3344054400 -0.2730216287