4
step 0
 N -0.0646313996 -0.0804946852  0.0521627758
 H  0.2763006209  0.6649095603  0.6800490960
 H  0.7915684524 -0.4457063844 -0.3946539545
 H -0.5475376717  0.4284915119 -0.7053579189
4
step 1
 N -0.0669622903 -0.0818531164  0.0477599535
 H  0.2709175198  0.6766828686  0.6883960615
 H  0.7945271281 -0.4470783471 -0.3991768475
 H -0.5427823556  0.4194485975 -0.7047791691
4
step 2
 N -0.0691897471 -0.0831896934  0.0434727713
 H  0.2649310599  0.6869990054  0.6954403678
 H  0.7971203633 -0.4481733737 -0.4033659613
 H -0.5387428616  0.4111380983 -0.7053056215
4
step 3
 N -0.0712109047 -0.0844830963  0.0394312425
 H  0.2579253059  0.6945907771  0.7000515004
 H  0.7990152902 -0.4487434481 -0.4068933428
 H -0.5360980000  0.4042839744 -0.7079379826
4
step 4
 N -0.0729581763 -0.0857196090  0.0357233909
 H  0.2496585510  0.6985833632  0.7014360469
 H  0.7999856919 -0.4486048895 -0.4095051379
 H -0.5353201029  0.3993861403 -0.7133619002
4
step 5
 N -0.0744093329 -0.0868878468  0.0323817149
 H  0.2400706350  0.6985417458  0.6991841861
 H  0.7999458181 -0.4476523632 -0.4110419387
 H -0.5365754957  0.3966141288 -0.7217848737
4
step 6
 N -0.0755904710 -0.0879771491  0.0293782057
 H  0.2292778638  0.6944897525  0.6932906124
 H  0.7989652236 -0.4458644314 -0.4114480054
 H -0.5396911373  0.3957723626 -0.7328751794
4
step 7
 N -0.0765713745 -0.0889816383  0.0266286597
 H  0.2175612298  0.6869162125  0.6841627953
 H  0.7972637609 -0.4433016178 -0.4107696512
 H -0.5442001310  0.3963497177 -0.7458276010
4
step 8
 N -0.0774547374 -0.0899082864  0.0240044482
 H  0.2053471660  0.6767658947  0.6726142265
 H  0.7951875854 -0.4400972611 -0.4091434665
 H -0.5494469532  0.3976322822 -0.7595295731
4
step 9
 N -0.0783617658 -0.0907846669  0.0213487836
 H  0.1931750187  0.6653947087  0.6598246674
 H  0.7931685542 -0.4364408627 -0.4067753768
 H -0.5547146613  0.3988390702 -0.7727688976
4
step 10
 N -0.0794163119 -0.0916613752  0.0184956694
 H  0.1816428618  0.6544553415  0.6472385277
 H  0.7916710659 -0.4325538919 -0.4039122819
 H -0.5593397303  0.3992448224 -0.7844270397
4
step 11
 N -0.0807287603 -0.0926054048  0.0152915210
 H  0.1713258819  0.6456817651  0.6363754219
 H  0.7911320848 -0.4286594863 -0.4008092878
 H -0.5627966826  0.3982718198 -0.7936272529
4
step 12
 N -0.0823805905 -0.0936841674  0.0116193566
 H  0.1626728552  0.6405741348  0.6285559363
 H  0.7919012712 -0.4249497439 -0.3976968817
 H -0.5647508216  0.3955492734 -0.7998323625
4
step 13
 N -0.0844113286 -0.0949451058  0.0074223799
 H  0.1559052624  0.6400524598  0.6246022201
 H  0.7941884201 -0.4215563383 -0.3947530469
 H -0.5650859665  0.3909470589 -0.8029006887
4
step 14
 N -0.0868106382 -0.0964003558  0.0027199431
 H  0.1509578959  0.6442101914  0.6246249461
 H  0.7980251441 -0.4185307817 -0.3920848397
 H -0.5639146602  0.3845904190 -0.8031094902
4
step 15
 N -0.0895180848 -0.0980248717 -0.0023911730
 H  0.1474907122  0.6522875834  0.6279975757
 H  0.8032475437 -0.4158390482 -0.3897225589
 H -0.5615732285  0.3768567592 -0.8011476906
4
step 16
 N -0.0924312212 -0.0997685506 -0.0077518030
 H  0.1449680407  0.6628787160  0.6335295244
 H  0.8095057472 -0.4133719281 -0.3876276780
 H -0.5585964418  0.3683484782 -0.7980687791
4
step 17
 N -0.0954204821 -0.1015743186 -0.0131670041
 H  0.1427694550  0.6742682329  0.6397513436
 H  0.8163027409 -0.4109684642 -0.3857130266
 H -0.5556606407  0.3598307544 -0.7951868317
4
step 18
 N -0.0983483965 -0.1033921498 -0.0184372683
 H  0.1402921578  0.6847613509  0.6451972387
 H  0.8230585127 -0.4084465331 -0.3838708589
 H -0.5534856096  0.3521255729 -0.7939016252
4
step 19
 N -0.1010904023 -0.1051837907 -0.0233889388
 H  0.1370229927  0.6929234525  0.6486134408
 H  0.8291885342 -0.4056338175 -0.3820026677
 H -0.5526986676  0.3459670989 -0.7954598766
4
step 20
 N -0.1035540082 -0.1069195927 -0.0278998964
 H  0.1325782794  0.6977159854  0.6490797196
 H  0.8341819158 -0.4023939606 -0.3800447680
 H -0.5536880725  0.3418469494 -0.8006974209
4
step 21
 N -0.1056924281 -0.1085731004 -0.0319165681
 H  0.1267199819  0.6985563147  0.6460661637
 H  0.8376659471 -0.3986453371 -0.3779855651
 H -0.5564938913  0.3398981124 -0.8098416769
4
step 22
 N -0.1075094994 -0.1101192468 -0.0354589560
 H  0.1193579346  0.6953367611  0.6394542874
 H  0.8394486358 -0.3943720164 -0.3758728785
 H -0.5607823172  0.3398630357 -0.8224515522
4
step 23
 N -0.1090552908 -0.1115387652 -0.0386134713
 H  0.1105445210  0.6884265342  0.6295420133
 H  0.8395362799 -0.3896272617 -0.3738116514
 H -0.5659163356  0.3411580152 -0.8375193679
4
step 24
 N -0.1104148392 -0.1128270884 -0.0415172118
 H  0.1004635409  0.6786617265  0.6170364407
 H  0.8381268509 -0.3845296896 -0.3719534227
 H -0.5710927894  0.3430040181 -0.8536894190
4
step 25
 N -0.1116937334 -0.1140031876 -0.0443386535
 H  0.0894106217  0.6673091274  0.6030220636
 H  0.8355817402 -0.3792518791 -0.3704792078
 H -0.5754949150  0.3445742622 -0.8695117237
4
step 26
 N -0.1130033473 -0.1151133579 -0.0472576781
 H  0.0777597018  0.6559737419  0.5888792787
 H  0.8323793002 -0.3740013493 -0.3695774602
 H -0.5784193079  0.3451192723 -0.8836633826
4
step 27
 N -0.1144468425 -0.1162262472 -0.0504448047
 H  0.0659108244  0.6464154372  0.5761254497
 H  0.8290546716 -0.3689948632 -0.3694190084
 H -0.5793605768  0.3440539745 -0.8951080983
4
step 28
 N -0.1161062040 -0.1174181195 -0.0540384435
 H  0.0542214317  0.6402610274  0.5661693962
 H  0.8261318874 -0.3644289185 -0.3701313752
 H -0.5780568955  0.3410101668 -0.9031961906
4
step 29
 N -0.1180310290 -0.1187517855 -0.0581213561
 H  0.0429365789  0.6386544175  0.5600169521
 H  0.8240557941 -0.3604512796 -0.3717755209
 H -0.5745081744  0.3358649814 -0.9077209834
4
step 30
 N -0.1202308388 -0.1202575620 -0.0627018234
 H  0.0321448662  0.6419584138  0.5580220677
 H  0.8231324270 -0.3571393989 -0.3743284733
 H -0.5689773433  0.3287539900 -0.9089454636
4
step 31
 N -0.1226729776 -0.1219258152 -0.0677071199
 H  0.0217821408  0.6496437785  0.5597934676
 H  0.8234869018 -0.3544906123 -0.3776753146
 H -0.5619781295  0.3200704884 -0.9076019379
4
step 32
 N -0.1252871183 -0.1237147762 -0.0729935743
 H  0.0116809621  0.6604248865  0.5643034993
 H  0.8250472200 -0.3524260552 -0.3816133831
 H -0.5542434053  0.3104437031 -0.9048525155
4
step 33
 N -0.1279759252 -0.1255679489 -0.0783711072
 H  0.0016396382  0.6725743008  0.5701433707
 H  0.8275593344 -0.3508064991 -0.3858697748
 H -0.5466610767  0.3006819792 -0.9021857753
4
step 34
 N -0.1306305602 -0.1274305894 -0.0836361959
 H -0.0085186426  0.6842783085  0.5758133815
 H  0.8306325287 -0.3494552819 -0.3901301039
 H -0.5401654534  0.2916678085 -0.9012245797
4
step 35
 N -0.1331491012 -0.1292577237 -0.0886071308
 H -0.0189109362  0.6939226555  0.5799588707
 H  0.8338063630 -0.3481825380 -0.3940732206
 H -0.5355864448  0.2842058086 -0.9034436348
4
step 36
 N -0.1354546978 -0.1310132362 -0.0931559321
 H -0.0295824735  0.7002697818  0.5815201374
 H  0.8366248619 -0.3468063578 -0.3974050678
 H -0.5334857860  0.2788526609 -0.9098463158
4
step 37
 N -0.1375090044 -0.1326653156 -0.0972305926
 H -0.0405095323  0.7025440229  0.5798087240
 H  0.8387032145 -0.3451691217 -0.3998859200
 H -0.5340341195  0.2757850182 -0.9207044714
4
step 38
 N -0.1393169456 -0.1341848163 -0.1008619774
 H -0.0516104149  0.7004605997  0.5745381329
 H  0.8397767215 -0.3431493299 -0.4013480076
 H -0.5369805021  0.2747608691 -0.9354714047
4
step 39
 N -0.1409219675 -0.1355498088 -0.1041543605
 H -0.0627608477  0.6942281640  0.5658322956
 H  0.8397281055 -0.3406698339 -0.4017033424
 H -0.5417273457  0.2751901898 -0.9529084268
4
step 40
 N -0.1423946566 -0.1367546815 -0.1072647773
 H -0.0738123809  0.6845375400  0.5542213374
 H  0.8385943710 -0.3377028187 -0.4009432330
 H -0.5474750141  0.2762788296 -0.9713642213
4
step 41
 N -0.1438191981 -0.1378191158 -0.1103788964
 H -0.0846131549  0.6725298808  0.5406185426
 H  0.8365566982 -0.3342710104 -0.3991313527
 H -0.5533790134  0.2771863426 -0.9890938195
4
step 42
 N -0.1452810704 -0.1387921184 -0.1136884399
 H -0.0950300319  0.6597205699  0.5262590673
 H  0.8339169103 -0.3304440088 -0.3963919283
 H -0.5586770244  0.2771534659 -1.0045260891
4
step 43
 N -0.1468573003 -0.1397477883 -0.1173705936
 H -0.1049698531  0.6478466365  0.5125746403
 H  0.8310631254 -0.3263288301 -0.3928942533
 H -0.5627712886  0.2755849121 -1.0164449180
4
step 44
 N -0.1486091345 -0.1407717418 -0.1215672873
 H -0.1143957742  0.6386162502  0.5009878177
 H  0.8284262382 -0.3220547486 -0.3888345980
 H -0.5652727561  0.2720948286 -1.0240935641
4
step 45
 N -0.1505765024 -0.1419405643 -0.1263634507
 H -0.1233333781  0.6333810541  0.4926433591
 H  0.8264285128 -0.3177541449 -0.3844168053
 H -0.5660210539  0.2665294525 -1.0272286215
4
step 46
 N -0.1527738078 -0.1433011040 -0.1317674548
 H -0.1318626970  0.6328181813  0.4881465690
 H  0.8254265418 -0.3135427099 -0.3798333391
 H -0.5650923477  0.2589784772 -1.0261461463
4
step 47
 N -0.1551870231 -0.1448588898 -0.1377005473
 H -0.1400976261  0.6367512541  0.4874117135
 H  0.8256538900 -0.3095031860 -0.3752491544
 H -0.5627999459  0.2497786021 -1.0216873481
4
step 48
 N -0.1577727375 -0.1465814823 -0.1440013956
 H -0.1481606227  0.6441999612  0.4896924026
 H  0.8271735107 -0.3056761537 -0.3707911974
 H -0.5596825469  0.2395028758 -1.0152112496
4
step 49
 N -0.1604606787 -0.1484139987 -0.1504469212
 H -0.1561622760  0.6536354873  0.4937777036
 H  0.8298535621 -0.3020593440 -0.3665460562
 H -0.5564648500  0.2289206586 -1.0085025068
4
step 50
 N -0.1631616617 -0.1502972010 -0.1567858015
 H -0.1641907003  0.6633250314  0.4982635163
 H  0.8333780351 -0.2986144471 -0.3625665429
 H -0.5539704034  0.2189100572 -1.0035745792
4
step 51
 N -0.1657818871 -0.1521789005 -0.1627790848
 H -0.1723095313  0.6716424456  0.5018024635
 H  0.8372942275 -0.2952784548 -0.3588850467
 H -0.5529759514  0.2103150308 -1.0023486060
4
step 52
 N -0.1682415830 -0.1540157453 -0.1682412368
 H -0.1805606376  0.6772812996  0.5032806297
 H  0.8410867153 -0.2919762558 -0.3555290654
 H -0.5540264697  0.2037681178 -1.0062495596
4
step 53
 N -0.1704924086 -0.1557694707 -0.1730725627
 H -0.1889688959  0.6793687360  0.5019178328
 H  0.8442590605 -0.2886323757 -0.3525339094
 H -0.5572705751  0.1995360322 -1.0158438863
4
step 54
 N -0.1725268058 -0.1574047223 -0.1772733874
 H -0.1975486245  0.6775095622  0.4973130396
 H  0.8464044900 -0.2851812217 -0.3499492179
 H -0.5623925426  0.1974568974 -1.0306770365
4
step 55
 N -0.1743757702 -0.1588929559 -0.1809361090
 H -0.2063122942  0.6717918738  0.4894585477
 H  0.8472538085 -0.2815757100 -0.3478384836
 H -0.5686791727  0.1969993688 -1.0493923146
4
step 56
 N -0.1760973386 -0.1602213780 -0.1842208129
 H -0.2152816055  0.6627719899  0.4787360657
 H  0.8466977192 -0.2777936146 -0.3462730346
 H -0.5751887243  0.1974096155 -1.0700675063
4
step 57
 N -0.1777616883 -0.1614020986 -0.1873253670
 H -0.2244995124  0.6514385619  0.4658936495
 H  0.8447868947 -0.2738405718 -0.3453230462
 H -0.5809459147  0.1978774643 -1.0906161638
4
step 58
 N -0.1794380436 -0.1624765431 -0.1904581957
 H -0.2340399420  0.6391397173  0.4519899077
 H  0.8417153117 -0.2697487492 -0.3450479727
 H -0.5850993637  0.1976681326 -1.1091232634
4
step 59
 N -0.1811857129 -0.1635120998 -0.1938156330
 H -0.2440101765  0.6274483061  0.4382854422
 H  0.8377918761 -0.2655708009 -0.3454878915
 H -0.5870181062  0.1962027633 -1.1240651512
4
step 60
 N -0.1830492229 -0.1645902673 -0.1975615833
 H -0.2545399198  0.6179466921  0.4260674379
 H  0.8334038697 -0.2613697916 -0.3466562593
 H -0.5863357569  0.1930975974 -1.1344280855
4
step 61
 N -0.1850564444 -0.1657882963 -0.2018073758
 H -0.2657529937  0.6119432888  0.4164185559
 H  0.8289743438 -0.2572069599 -0.3485339665
 H -0.5829627265  0.1881798133 -1.1397639380
4
step 62
 N -0.1872183065 -0.1671597493 -0.2065931194
 H -0.2777246150  0.6101849384  0.4099825971
 H  0.8249150006 -0.2531300874 -0.3510645087
 H -0.5770842069  0.1814943112 -1.1402167543
4
step 63
 N -0.1895287534 -0.1687217529 -0.2118755732
 H -0.2904377451  0.6126698894  0.4068107671
 H  0.8215770200 -0.2491653467 -0.3541505777
 H -0.5691522387  0.1733071955 -1.1365352951
4
step 64
 N -0.1919642696 -0.1704548174 -0.2175282270
 H -0.3037581489  0.6186479450  0.4063568033
 H  0.8192050137 -0.2453144371 -0.3576532757
 H -0.5598683966  0.1641018895 -1.1300625314
4
step 65
 N -0.1944838298 -0.1723145731 -0.2233562945
 H -0.3174413451  0.6268109887  0.4076229054
 H  0.8179026415 -0.2415568409 -0.3613958859
 H -0.5501423256  0.1545544371 -1.1226678960
4
step 66
 N -0.1970317216 -0.1742481869 -0.2291255646
 H -0.3311685438  0.6355900580  0.4093903478
 H  0.8176194463 -0.2378551508 -0.3651738101
 H -0.5410053197  0.1454687689 -1.1165706445
4
step 67
 N -0.1995456620 -0.1762067433 -0.2346019074
 H -0.3445959739  0.6434502173  0.4104498297
 H  0.8181645111 -0.2341606765 -0.3687704576
 H -0.5334655384  0.1376573301 -1.1140122943
4
step 68
 N -0.2019700006 -0.1781491402 -0.2395960087
 H -0.3574011937  0.6491122238  0.4097764051
 H  0.8192444127 -0.2304174625 -0.3719764164
 H -0.5283193937  0.1317757106 -1.1167968113
4
step 69
 N -0.2042696934 -0.1800395824 -0.2440033684
 H -0.3693179773  0.6516840683  0.4066358970
 H  0.8205149652 -0.2265649578 -0.3746077910
 H -0.5259748745  0.1281585551 -1.1258241158
4
step 70
 N -0.2064384505 -0.1818449836 -0.2478261696
 H -0.3801600793  0.6507199555  0.4006362465
 H  0.8216332050 -0.2225412259 -0.3765200616
 H -0.5263642589  0.1267290341 -1.1408193360
4
step 71
 N -0.2084969143 -0.1835374974 -0.2511684614
 H -0.3898382555  0.6462328747  0.3917434625
 H  0.8222993656 -0.2182882911 -0.3776156767
 H -0.5289907119  0.1270289238 -1.1604011884
4
step 72
 N -0.2104825308 -0.1851022016 -0.2542087285
 H -0.3983736219  0.6386789040  0.3802751092
 H  0.8222851626 -0.2137594397 -0.3778456646
 H -0.5330813116  0.1283499277 -1.1824500102
4
step 73
 N -0.2124368226 -0.1865455194 -0.2571634024
 H -0.4059062009  0.6289170104  0.3668730614
 H  0.8214499384 -0.2089266888 -0.3772067706
 H -0.5377713253  0.1298984675 -1.2045900976
4
step 74
 N -0.2143953566 -0.1878994146 -0.2602535768
 H -0.4126932304  0.6181346057  0.3524474430
 H  0.8197479479 -0.2037860415 -0.3757359199
 H -0.5422546874  0.1309324562 -1.2246056501
4
step 75
 N -0.2163827814 -0.1892184893 -0.2636794354
 H -0.4190894526  0.6077217951  0.3380792143
 H  0.8172290778 -0.1983588025 -0.3735034795
 H -0.5458763924  0.1308462853 -1.2407111167
4
step 76
 N -0.2184127103 -0.1905695901 -0.2676006896
 H -0.4255029055  0.5990821558  0.3248738561
 H  0.8140332977 -0.1926885993 -0.3706061509
 H -0.5481750842  0.1292112978 -1.2516881668
4
step 77
 N -0.2204907776 -0.1920159327 -0.2721200131
 H -0.4323267388  0.5933911153  0.3137766789
 H  0.8103774030 -0.1868351573 -0.3671597626
 H -0.5488960075  0.1257902857 -1.2569393500
4
step 78
 N -0.2226184610 -0.1936003180 -0.2772688129
 H -0.4398601745  0.5913514977  0.3053883171
 H  0.8065319280 -0.1808668549 -0.3632920044
 H -0.5479922576  0.1205422088 -1.2565055552
4
step 79
 N -0.2247951178 -0.1953337024 -0.2829978278
 H -0.4482437520  0.5930266854  0.2998398428
 H  0.8027871887 -0.1748543228 -0.3591352767
 H -0.5456242839  0.1136255489 -1.2510732738
4
step 80
 N -0.2270166545 -0.1971940715 -0.2891763615
 H -0.4574343628  0.5978216438  0.2967771825
 H  0.7994107331 -0.1688666284 -0.3548202134
 H -0.5421579037  0.1053995022 -1.2419706764
4
step 81
 N -0.2292715162 -0.1991357864 -0.2956028438
 H -0.4672294277  0.6046232864  0.2954606463
 H  0.7966033811 -0.1629701247 -0.3504708881
 H -0.5381507590  0.0964130031 -1.2311230470
4
step 82
 N -0.2315371593 -0.2011041933 -0.3020275604
 H -0.4773273173  0.6120433307  0.2949369480
 H  0.7944649436 -0.1572284828 -0.3462027942
 H -0.5343081391  0.0873640312 -1.2209138093
4
step 83
 N -0.2337810126 -0.2030481300 -0.3081872247
 H -0.4873990361  0.6186780670  0.2942225402
 H  0.7929802578 -0.1517015481 -0.3421239933
 H -0.5313874791  0.0790104432 -1.2138929434
4
step 84
 N -0.2359681118 -0.2049254227 -0.3138489946
 H -0.4971499022  0.6233200498  0.2924528737
 H  0.7920307162 -0.1464423767 -0.3383380558
 H -0.5300456625  0.0720296483 -1.2123183220
4
step 85
 N -0.2380731377 -0.2067015377 -0.3188561109
 H -0.5063619132  0.6250961953  0.2889815080
 H  0.7914258836 -0.1414915730 -0.3349472211
 H -0.5306622957  0.0668553333 -1.2176199637
4
step 86
 N -0.2400907473 -0.2083465251 -0.3231605590
 H -0.5149184458  0.6235392339  0.2834340072
 H  0.7909442630 -0.1368729110 -0.3320528114
 H -0.5332103922  0.0635602445 -1.2299961894
4
step 87
 N -0.2420377432 -0.2098358833 -0.3268289190
 H -0.5228173332  0.6186104809  0.2757293924
 H  0.7903699069 -0.1325921204 -0.3297518871
 H -0.5372459662  0.0618464129 -1.2483499699
4
step 88
 N -0.2439457354 -0.2111567815 -0.3300198457
 H -0.5301770101  0.6106889115  0.2660787535
 H  0.7895172722 -0.1286396864 -0.3281303481
 H -0.5420254676  0.0611472442 -1.2706012417
4
step 89
 N -0.2458488926 -0.2123159722 -0.3329457213
 H -0.5372357943  0.6005311142  0.2549630455
 H  0.7882438611 -0.1249959312 -0.3272542527
 H -0.5466886118  0.0607830209 -1.2942048605
4
step 90
 N -0.2477731524 -0.2133441847 -0.3358341964
 H -0.5443394437  0.5891962411  0.2430848718
 H  0.7864547753 -0.1216357904 -0.3271617406
 H -0.5504272466  0.0601006604 -1.3166485352
4
step 91
 N -0.2497308254 -0.2142938089 -0.3388980918
 H -0.5519094661  0.5779251530  0.2312860408
 H  0.7841038980 -0.1185313002 -0.3278574330
 H -0.5525964193  0.0585629858 -1.3358003056
4
step 92
 N -0.2517212010 -0.2152295889 -0.3423139205
 H -0.5603861665  0.5679684232  0.2204270697
 H  0.7811944658 -0.1156512943 -0.3293100050
 H -0.5527661740  0.0557895397 -1.3500939997
4
step 93
 N -0.2537355314 -0.2162145128 -0.3462059361
 H -0.5701478514  0.5603769441  0.2112386417
 H  0.7777791881 -0.1129593030 -0.3314525324
 H -0.5507340418  0.0515673212 -1.3586035850
4
step 94
 N -0.2557636368 -0.2172950857 -0.3506336931
 H -0.5814207011  0.5557974687  0.2041752297
 H  0.7739580777 -0.1104115051 -0.3341846958
 H -0.5465198421  0.0458493391 -1.3610648503
4
step 95
 N -0.2577990430 -0.2184911690 -0.3555836808
 H -0.5942065197  0.5543360180  0.1993155045
 H  0.7698714393 -0.1079565785 -0.3373760708
 H -0.5403566179  0.0387515761 -1.3578832778
4
step 96
 N -0.2598403212 -0.2197943303 -0.3609671582
 H -0.6082569228  0.5555418667  0.1963469591
 H  0.7656863177 -0.1055384097 -0.3408703364
 H -0.5326812316  0.0305505460 -1.3501387996
4
step 97
 N -0.2618883469 -0.2211749835 -0.3666262332
 H -0.6231066994  0.5585202219  0.1946409287
 H  0.7615770200 -0.1031011267 -0.3444909578
 H -0.5241180601  0.0216757801 -1.3395677039
4
step 98
 N -0.2639416990 -0.2225945311 -0.3723496699
 H -0.6381547441  0.5621306753  0.1933883852
 H  0.7577031502 -0.1005944329 -0.3480492682
 H -0.5154409398  0.0126849074 -1.3284724236
4
step 99
 N -0.2659938177 -0.2240168345 -0.3778998838
 H -0.6527647834  0.5652055989  0.1917507365
 H  0.7541902722 -0.0979766053 -0.3513554948
 H -0.5074957104  0.0042058220 -1.3194920646
4
step 100
 N -0.2680346775 -0.2254145901 -0.3830516965
 H -0.6663585237  0.5667354867  0.1889887478
 H  0.7511175235 -0.0952134178 -0.3542321300
 H -0.5010751435 -0.0031632872 -1.3151864413
4
step 101
 N -0.2700566782 -0.2267697087 -0.3876385480
 H -0.6784857448  0.5659975433  0.1845532082
 H  0.7485133304 -0.0922735500 -0.3565277191
 H -0.4967647729 -0.0089830524 -1.3174746957
4
step 102
 N -0.2720608405 -0.2280706892 -0.3915931913
 H -0.6888690468  0.5626279978  0.1781378990
 H  0.7463567093 -0.0891235120 -0.3581284873
 H -0.4948123628 -0.0130862355 -1.3271092858
4
step 103
 N -0.2740581962 -0.2293116429 -0.3949653111
 H -0.6974284069  0.5566489873  0.1697024614
 H  0.7445802086 -0.0857258843 -0.3589656561
 H -0.4950834606 -0.0156178745 -1.3434400679
4
step 104
 N -0.2760643736 -0.2304953117 -0.3979071506
 H -0.7042906159  0.5484595869  0.1594713514
 H  0.7430726017 -0.0820427999 -0.3590174121
 H -0.4971261640 -0.0169787273 -1.3646039697
4
step 105
 N -0.2780904244 -0.2316380517 -0.4006353770
 H -0.7097833896  0.5387936307  0.1479096128
 H  0.7416831365 -0.0780432629 -0.3583057165
 H -0.5003071817 -0.0177056102 -1.3880309369
4
step 106
 N -0.2801353279 -0.2327724812 -0.4033869672
 H -0.7144079879  0.5286400840  0.1356712306
 H  0.7402310256 -0.0737106520 -0.3568892400
 H -0.5039542507 -0.0183482877 -1.4110149824
4
step 107
 N -0.2821840490 -0.2339446727 -0.4063825261
 H -0.7187820288  0.5191197093  0.1235151153
 H  0.7385223518 -0.0690469591 -0.3548544241
 H -0.5074604293 -0.0193827929 -1.4311549057
4
step 108
 N -0.2842118391 -0.2352054980 -0.4098007611
 H -0.7235489665  0.5113187539  0.1121898497
 H  0.7363730971 -0.0640723520 -0.3523065933
 H -0.5103409409 -0.0211675924 -1.4466083976
4
step 109
 N -0.2861928104 -0.2365982562 -0.4137619505
 H -0.7292632602  0.5060981287  0.1023016106
 H  0.7336339309 -0.0588209848 -0.3493622967
 H -0.5122549425 -0.0239296412 -1.4561997887
4
step 110
 N -0.2881092578 -0.2381465098 -0.4183176482
 H -0.7362768631  0.5039194822  0.0941954023
 H  0.7302111868 -0.0533354239 -0.3461431537
 H -0.5130094583 -0.0277644571 -1.4594485800
4
step 111
 N -0.2899579119 -0.2398466171 -0.4234456245
 H -0.7446629656  0.5047417942  0.0878867039
 H  0.7260793183 -0.0476621696 -0.3427708939
 H -0.5125584741 -0.0326393722 -1.4565711911
4
step 112
 N -0.2917505828 -0.2416679969 -0.4290503755
 H -0.7542054985  0.5080271508  0.0830683789
 H  0.7212825162 -0.0418496864 -0.3393631553
 H -0.5110030242 -0.0383958097 -1.4484791854
4
step 113
 N -0.2935092515 -0.2435609685 -0.4349697991
 H -0.7644578596  0.5128545135  0.0791892934
 H  0.7159262475 -0.0359487036 -0.3360298428
 H -0.5085903806 -0.0447527287 -1.4367652854
4
step 114
 N -0.2952583011 -0.2454688486 -0.4409888722
 H -0.7748474429  0.5181008139  0.0755747729
 H  0.7101622262 -0.0300130942 -0.3328702542
 H -0.5057028406 -0.0513189889 -1.4236374073
4
step 115
 N -0.2970178394 -0.2473396554 -0.4468621153
 H -0.7847911039  0.5226344767  0.0715511942
 H  0.7041716732 -0.0240990253 -0.3299714851
 H -0.5028209037 -0.0576265830 -1.4117375609
4
step 116
 N -0.2988013360 -0.2491336621 -0.4523469572
 H -0.7937936101  0.5254794319  0.0665476268
 H  0.6981509430 -0.0182608047 -0.3274085307
 H -0.5004467662 -0.0631958780 -1.4037863619
4
step 117
 N -0.3006183239 -0.2508254301 -0.4572467870
 H -0.8015165610  0.5259313594  0.0601644606
 H  0.6923006843 -0.0125439018 -0.3252460073
 H -0.4989894387 -0.0676319891 -1.4020562445
4
step 118
 N -0.3024795378 -0.2524018994 -0.4614542790
 H -0.8078183988  0.5236264257  0.0522114064
 H  0.6868159021 -0.0069780476 -0.3235407867
 H -0.4986431444 -0.0707268111 -1.4078043225
4
step 119
 N -0.3043996080 -0.2538601377 -0.4649779941
 H -0.8127719227  0.5185702753  0.0427214457
 H  0.6818721412 -0.0015744699 -0.3223444355
 H -0.4993156250 -0.0725203449 -1.4209087272
4
step 120
 N -0.3063937880 -0.2552076145 -0.4679386184
 H -0.8166642133  0.5111332594  0.0319451104
 H  0.6776048097  0.0036701038 -0.3217043409
 H -0.5006492688 -0.0732859248 -1.4399069382
4
step 121
 N -0.3084698645 -0.2564645473 -0.4705367783
 H -0.8199782446  0.5020115821  0.0203247022
 H  0.6740840688  0.0087637988 -0.3216627757
 H -0.5021246610 -0.0734478770 -1.4624141365
4
step 122
 N -0.3106203224 -0.2576650523 -0.4730082719
 H -0.8233498435  0.4921485489  0.0084444377
 H  0.6712932001  0.0137087351 -0.3222538708
 H -0.5031915880 -0.0734763286 -1.4856998353
4
step 123
 N -0.3128197376 -0.2588539496 -0.4755830333
 H -0.8274923679  0.4826101860 -0.0030469806
 H  0.6691196108  0.0184938411 -0.3234991484
 H -0.5033744665 -0.0738017227 -1.5071905742
4
step 124
 N -0.3150292367 -0.2600784483 -0.4784553889
 H -0.8330879048  0.4744190439 -0.0135383809
 H  0.6673637835  0.0230940877 -0.3254025287
 H -0.5023312725 -0.0747652201 -1.5247921455
4
step 125
 N -0.3172063790 -0.2613766795 -0.4817654622
 H -0.8406581337  0.4683691880 -0.0225677555
 H  0.6657651985  0.0274756755 -0.3279455508
 H -0.4998729278 -0.0765991899 -1.5370442557
4
step 126
 N -0.3193165588 -0.2627669531 -0.4855890049
 H -0.8504451320  0.4648663896 -0.0299162170
 H  0.6640390834  0.0316043328 -0.3310832180
 H -0.4959602142 -0.0794246367 -1.5431709173
4
step 127
 N -0.3213415479 -0.2642419488 -0.4899335390
 H -0.8623407765  0.4638442165 -0.0356540320
 H  0.6619158523  0.0354533458 -0.3347406885
 H -0.4906927209 -0.0832546581 -1.5430868310
4
step 128
 N -0.3232822612 -0.2657703138 -0.4947396817
 H -0.8758921909  0.4647863263 -0.0401218857
 H  0.6591761852  0.0390090550 -0.3388111237
 H -0.4842971492 -0.0879983359 -1.5373943887
4
step 129
 N -0.3251555803 -0.2673050199 -0.4998869870
 H -0.8903825132  0.4668452826 -0.0438549689
 H  0.6556774200  0.0422733800 -0.3431552954
 H -0.4771150914 -0.0934648067 -1.5273750616
4
step 130
 N -0.3269876095 -0.2687951595 -0.5052043366
 H -0.9049588849  0.4690146141 -0.0474771521
 H  0.6513696726  0.0452644504 -0.3476038327
 H -0.4695848143 -0.0993719810 -1.5149484635
4
step 131
 N -0.3288067116 -0.2701970936 -0.5104864213
 H -0.9187698066  0.4703036852 -0.0515958875
 H  0.6463018111  0.0480170781 -0.3519630409
 H -0.4622085802 -0.1053681177 -1.5025462599
4
step 132
 N -0.3306388852 -0.2714818781 -0.5155191535
 H -0.9310828526  0.4698811295 -0.0567180192
 H  0.6406178108  0.0505843449 -0.3560248850
 H -0.4554985653 -0.1110754158 -1.4928389956
4
step 133
 N -0.3325061611 -0.2726378056 -0.5201153700
 H -0.9413701329  0.4671749833 -0.0631928250
 H  0.6345434670  0.0530400003 -0.3595809242
 H -0.4499029542 -0.1161587121 -1.4882878177
4
step 134
 N -0.3344266152 -0.2736690047 -0.5241558505
 H -0.9493621137  0.4619326859 -0.0711794228
 H  0.6283626534  0.0554793218 -0.3624389983
 H -0.4457287219 -0.1204061212 -1.4905914029
4
step 135
 N -0.3364133982 -0.2745926674 -0.5276219788
 H -0.9550759088  0.4542482559 -0.0806332727
 H  0.6223823726  0.0580148619 -0.3644406429
 H -0.4430898783 -0.1237893160 -1.5002244011
4
step 136
 N -0.3384709662 -0.2754374435 -0.5306041084
 H -0.9588221340  0.4445601072 -0.0913091751
 H  0.6168879650  0.0607645359 -0.3654767283
 H -0.4419048166 -0.1264697719 -1.5162961670
4
step 137
 N -0.3405893677 -0.2762433419 -0.5332801799
 H -0.9611874783  0.4336160958 -0.1027827947
 H  0.6120942900  0.0638330847 -0.3654987004
 H -0.4419417069 -0.1287451247 -1.5368101918
4
step 138
 N -0.3427399920 -0.2770608708 -0.5358747866
 H -0.9629827688  0.4223972825 -0.1144961087
 H  0.6081033398  0.0672919997 -0.3645232925
 H -0.4428869281 -0.1309647032 -1.5591824087
4
step 139
 N -0.3448765014 -0.2779465973 -0.5386154807
 H -0.9651448243  0.4119927149 -0.1258311205
 H  0.6048799012  0.0711649308 -0.3626300422
 H -0.4444081385 -0.1334527037 -1.5807812944
4
step 140
 N -0.3469426322 -0.2789541046 -0.5416979321
 H -0.9685893672  0.4034291824 -0.1362098526
 H  0.6022525940  0.0754226214 -0.3599522344
 H -0.4461970937 -0.1364603420 -1.5993269297
4
step 141
 N -0.3488852934 -0.2801222354 -0.5452631196
 H -0.9740353352  0.3974798988 -0.1452034748
 H  0.5999403496  0.0799898272 -0.3566645487
 H -0.4479919374 -0.1401460739 -1.6131152150
4
step 142
 N -0.3506686841 -0.2814644297 -0.5493851677
 H -0.9818443021  0.3945013161 -0.1526231780
 H  0.5975965601  0.0847589114 -0.3529688301
 H -0.4495858564 -0.1445742179 -1.6211104304
4
step 143
 N -0.3522841048 -0.2829635217 -0.5540674938
 H -0.9919308162  0.3943523291 -0.1585608581
 H  0.5948601608  0.0896059457 -0.3490800293
 H -0.4508296539 -0.1497214961 -1.6229686858
4
step 144
 N -0.3537519284 -0.2845743758 -0.5592452895
 H -1.0037789933  0.3964265775 -0.1633640032
 H  0.5914038821  0.0944051335 -0.3452128369
 H -0.4516333538 -0.1554855774 -1.6190368878
4
step 145
 N -0.3551158284 -0.2862334077 -0.5647926173
 H -1.0165577557  0.3997836849 -0.1675554025
 H  0.5869737773  0.0990400775 -0.3415690458
 H -0.4519685840 -0.1616940439 -1.6103430551
4
step 146
 N -0.3564325318 -0.2878714357 -0.5705331556
 H -1.0292902173  0.4033303930 -0.1717275903
 H  0.5814181317  0.1034126746 -0.3383256449
 H -0.4518699743 -0.1681155491 -1.5985635118
4
step 147
 N -0.3577612883 -0.2894258843 -0.5762553573
 H -1.0410247735  0.4059984057 -0.1764429575
 H  0.5747062748  0.1074514750 -0.3356240920
 H -0.4514305568 -0.1744772192 -1.5859253819
4
step 148
 N -0.3591560925 -0.2908496974 -0.5817346420
 H -1.0509728975  0.4068859426 -0.1821578548
 H  0.5669382654  0.1111209131 -0.3335617891
 H -0.4507843198 -0.1804930842 -1.5749875321
4
step 149
 N -0.3606616876 -0.2921161078 -0.5867649664
 H -1.0586026806  0.4053543365 -0.1891745525
 H  0.5583453049  0.1144310886 -0.3321871688
 H -0.4500711652 -0.1859056777 -1.5682596308
4
step 150
 N -0.3623124173 -0.2932198600 -0.5911975275
 H -1.0636934536  0.4010858329 -0.1976162720
 H  0.5492787216  0.1174453493 -0.3314998067
 H -0.4493882884 -0.1905350395 -1.5676912190
4
step 151
 N -0.3641315918 -0.2941763683 -0.5949762086
 H -1.0663617481  0.3941118739 -0.2074188589
 H  0.5401835515  0.1202808769 -0.3314565587
 H -0.4487454102 -0.1943185905 -1.5741790806
4
step 152
 N -0.3661289596 -0.2950202427 -0.5981542694
 H -1.0670646580  0.3848161783 -0.2183358361
 H  0.5315528932  0.1230974305 -0.3319838616
 H -0.4480480069 -0.1973217477 -1.5873124843
4
step 153
 N -0.3682957920 -0.2958033976 -0.6008825648
 H -1.0665772517  0.3739085149 -0.2299586262
 H  0.5238632461  0.1260726518 -0.3329950119
 H -0.4471207249 -0.1997116500 -1.6054940874
4
step 154
 N -0.3706001123 -0.2965913720 -0.6033740001
 H -1.0659308727  0.3623580203 -0.2417576625
 H  0.5174990090  0.1293680865 -0.3344095656
 H -0.4457589851 -0.2017071096 -1.6263716762
4
step 155
 N -0.3729863506 -0.2974560127 -0.6058592784
 H -1.0662956694  0.3512741185 -0.2531500301
 H  0.5126823903  0.1330951013 -0.3361705525
 H -0.4437827089 -0.2035280190 -1.6473711400
4
step 156
 N -0.3753825805 -0.2984639983 -0.6085478737
 H -1.0688012296  0.3417339990 -0.2635927171
 H  0.5094276386  0.1372911297 -0.3382550603
 H -0.4410722270 -0.2053602312 -1.6661403993
4
step 157
 N -0.3777149632 -0.2996631115 -0.6116006917
 H -1.0743165848  0.3345803552 -0.2726873838