2
step 0
Ar -2.5808618548  0.0000000000  0.0000000000
Ar  3.5808618593  0.0000000000  0.0000000000
2
step 1
Ar -2.5800040724 -0.0015422030 -0.0012087796
Ar  3.5800040769  0.0015422030  0.0012087796
2
step 2
Ar -2.5791603736 -0.0030590852 -0.0023977128
Ar  3.5791603781  0.0030590852  0.0023977128
2
step 3
Ar -2.5783304972 -0.0045511163 -0.0035671677
Ar  3.5783305017  0.0045511163  0.0035671677
2
step 4
Ar -2.5775141663 -0.0060187940 -0.0047175343
Ar  3.5775141707  0.0060187940  0.0047175343
2
step 5
Ar -2.5767110900 -0.0074626410 -0.0058492225
Ar  3.5767110945  0.0074626410  0.0058492225
2
step 6
Ar -2.5759209659 -0.0088832015 -0.0069626587
Ar  3.5759209704  0.0088832015  0.0069626587
2
step 7
Ar -2.5751434814 -0.0102810375 -0.0080582833
Ar  3.5751434859  0.0102810375  0.0080582833
2
step 8
Ar -2.5743783155 -0.0116567257 -0.0091365486
Ar  3.5743783200  0.0116567257  0.0091365486
2
step 9
Ar -2.5736251410 -0.0130108547 -0.0101979157
Ar  3.5736251455  0.0130108547  0.0101979157
2
step 10
Ar -2.5728836256 -0.0143440220 -0.0112428530
Ar  3.5728836301  0.0143440220  0.0112428530
2
step 11
Ar -2.5721534335 -0.0156568309 -0.0122718334
Ar  3.5721534380  0.0156568309  0.0122718334
2
step 12
Ar -2.5714342271 -0.0169498888 -0.0132853330
Ar  3.5714342316  0.0169498888  0.0132853330
2
step 13
Ar -2.5707256679 -0.0182238043 -0.0142838287
Ar  3.5707256723  0.0182238043  0.0142838287
2
step 14
Ar -2.5700274176 -0.0194791852 -0.0152677970
Ar  3.5700274221  0.0194791852  0.0152677970
2
step 15
Ar -2.5693391397 -0.0207166370 -0.0162377125
Ar  3.5693391442  0.0207166370  0.0162377125
2
step 16
Ar -2.5686604998 -0.0219367605 -0.0171940460
Ar  3.5686605043  0.0219367605  0.0171940460
2
step 17
Ar -2.5679911669 -0.0231401512 -0.0181372643
Ar  3.5679911714  0.0231401512  0.0181372643
2
step 18
Ar -2.5673308138 -0.0243273970 -0.0190678283
Ar  3.5673308183  0.0243273970  0.0190678283
2
step 19
Ar -2.5666791180 -0.0254990780 -0.0199861926
Ar  3.5666791224  0.0254990780  0.0199861926
2
step 20
Ar -2.5660357620 -0.0266557647 -0.0208928043
Ar  3.5660357665  0.0266557647  0.0208928043
2
step 21
Ar -2.5654004340 -0.0277980180 -0.0217881031
Ar  3.5654004385  0.0277980180  0.0217881031
2
step 22
Ar -2.5647728281 -0.0289263877 -0.0226725200
Ar  3.5647728326  0.0289263877  0.0226725200
2
step 23
Ar -2.5641526447 -0.0300414126 -0.0235464772
Ar  3.5641526492  0.0300414126  0.0235464772
2
step 24
Ar -2.5635395906 -0.0311436198 -0.0244103879
Ar  3.5635395951  0.0311436198  0.0244103879
2
step 25
Ar -2.5629333793 -0.0322335244 -0.0252646557
Ar  3.5629333838  0.0322335244  0.0252646557
2
step 26
Ar -2.5623337310 -0.0333116294 -0.0261096750
Ar  3.5623337355  0.0333116294  0.0261096750
2
step 27
Ar -2.5617403728 -0.0343784254 -0.0269458304
Ar  3.5617403773  0.0343784254  0.0269458304
2
step 28
Ar -2.5611530386 -0.0354343909 -0.0277734968
Ar  3.5611530431  0.0354343909  0.0277734968
2
step 29
Ar -2.5605714691 -0.0364799920 -0.0285930395
Ar  3.5605714736  0.0364799920  0.0285930395
2
step 30
Ar -2.5599954119 -0.0375156827 -0.0294048145
Ar  3.5599954164  0.0375156827  0.0294048145
2
step 31
Ar -2.5594246210 -0.0385419051 -0.0302091683
Ar  3.5594246255  0.0385419051  0.0302091683
2
step 32
Ar -2.5588588571 -0.0395590894 -0.0310064380
Ar  3.5588588616  0.0395590894  0.0310064380
2
step 33
Ar -2.5582978873 -0.0405676545 -0.0317969518
Ar  3.5582978918  0.0405676545  0.0317969518
2
step 34
Ar -2.5577414849 -0.0415680078 -0.0325810293
Ar  3.5577414894  0.0415680078  0.0325810293
2
step 35
Ar -2.5571894293 -0.0425605460 -0.0333589814
Ar  3.5571894338  0.0425605460  0.0333589814
2
step 36
Ar -2.5566415057 -0.0435456554 -0.0341311108
Ar  3.5566415102  0.0435456554  0.0341311108
2
step 37
Ar -2.5560975048 -0.0445237121 -0.0348977121
Ar  3.5560975094  0.0445237121  0.0348977121
2
step 38
Ar -2.5555572231 -0.0454950822 -0.0356590726
Ar  3.5555572276  0.0454950822  0.0356590726
2
step 39
Ar -2.5550204618 -0.0464601229 -0.0364154721
Ar  3.5550204663  0.0464601229  0.0364154721
2
step 40
Ar -2.5544870272 -0.0474191824 -0.0371671836
Ar  3.5544870318  0.0474191824  0.0371671836
2
step 41
Ar -2.5539567305 -0.0483726006 -0.0379144733
Ar  3.5539567350  0.0483726006  0.0379144733
2
step 42
Ar -2.5534293868 -0.0493207094 -0.0386576015
Ar  3.5534293913  0.0493207094  0.0386576015
2
step 43
Ar -2.5529048157 -0.0502638334 -0.0393968227
Ar  3.5529048202  0.0502638334  0.0393968227
2
step 44
Ar -2.5523828403 -0.0512022905 -0.0401323859
Ar  3.5523828449  0.0512022905  0.0401323859
2
step 45
Ar -2.5518632875 -0.0521363922 -0.0408645354
Ar  3.5518632920  0.0521363922  0.0408645354
2
step 46
Ar -2.5513459869 -0.0530664445 -0.0415935110
Ar  3.5513459915  0.0530664445  0.0415935110
2
step 47
Ar -2.5508307714 -0.0539927482 -0.0423195484
Ar  3.5508307759  0.0539927482  0.0423195484
2
step 48
Ar -2.5503174759 -0.0549155999 -0.0430428801
Ar  3.5503174804  0.0549155999  0.0430428801
2
step 49
Ar -2.5498059374 -0.0558352926 -0.0437637357
Ar  3.5498059420  0.0558352926  0.0437637357
2
step 50
Ar -2.5492959947 -0.0567521163 -0.0444823427
Ar  3.5492959993  0.0567521163  0.0444823427
2
step 51
Ar -2.5487874875 -0.0576663592 -0.0451989268
Ar  3.5487874920  0.0576663592  0.0451989268
2
step 52
Ar -2.5482802560 -0.0585783084 -0.0459137131
Ar  3.5482802605  0.0585783084  0.0459137131
2
step 53
Ar -2.5477741405 -0.0594882511 -0.0466269268
Ar  3.5477741450  0.0594882511  0.0466269268
2
step 54
Ar -2.5472689806 -0.0603964758 -0.0473387939
Ar  3.5472689852  0.0603964758  0.0473387939
2
step 55
Ar -2.5467646145 -0.0613032733 -0.0480495423
Ar  3.5467646191  0.0613032733  0.0480495423
2
step 56
Ar -2.5462608780 -0.0622089388 -0.0487594034
Ar  3.5462608826  0.0622089388  0.0487594034
2
step 57
Ar -2.5457576040 -0.0631137728 -0.0494686129
Ar  3.5457576086  0.0631137728  0.0494686129
2
step 58
Ar -2.5452546209 -0.0640180840 -0.0501774125
Ar  3.5452546255  0.0640180840  0.0501774125
2
step 59
Ar -2.5447517514 -0.0649221907 -0.0508860519
Ar  3.5447517560  0.0649221907  0.0508860519
2
step 60
Ar -2.5442488116 -0.0658264239 -0.0515947904
Ar  3.5442488162  0.0658264239  0.0515947904
2
step 61
Ar -2.5437456087 -0.0667311302 -0.0523038998
Ar  3.5437456133  0.0667311302  0.0523038998
2
step 62
Ar -2.5432419394 -0.0676366749 -0.0530136663
Ar  3.5432419440  0.0676366749  0.0530136663
2
step 63
Ar -2.5427375876 -0.0685434466 -0.0537243945
Ar  3.5427375923  0.0685434466  0.0537243945
2
step 64
Ar -2.5422323222 -0.0694518611 -0.0544364103
Ar  3.5422323268  0.0694518611  0.0544364103
2
step 65
Ar -2.5417258935 -0.0703623669 -0.0551500653
Ar  3.5417258982  0.0703623669  0.0551500653
2
step 66
Ar -2.5412180306 -0.0712754513 -0.0558657414
Ar  3.5412180353  0.0712754513  0.0558657414
2
step 67
Ar -2.5407084373 -0.0721916469 -0.0565838560
Ar  3.5407084419  0.0721916469  0.0565838560
2
step 68
Ar -2.5401967879 -0.0731115391 -0.0573048681
Ar  3.5401967925  0.0731115391  0.0573048681
2
step 69
Ar -2.5396827226 -0.0740357747 -0.0580292845
Ar  3.5396827273  0.0740357747  0.0580292845
2
step 70
Ar -2.5391658426 -0.0749650709 -0.0587576674
Ar  3.5391658473  0.0749650709  0.0587576674
2
step 71
Ar -2.5386457043 -0.0759002253 -0.0594906420
Ar  3.5386457089  0.0759002253  0.0594906420
2
step 72
Ar -2.5381218134 -0.0768421262 -0.0602289045
Ar  3.5381218181  0.0768421262  0.0602289045
2
step 73
Ar -2.5375936195 -0.0777917637 -0.0609732309
Ar  3.5375936242  0.0777917637  0.0609732309
2
step 74
Ar -2.5370605093 -0.0787502401 -0.0617244853
Ar  3.5370605140  0.0787502401  0.0617244853
2
step 75
Ar -2.5365218010 -0.0797187813 -0.0624836284
Ar  3.5365218057  0.0797187813  0.0624836284
2
step 76
Ar -2.5359767391 -0.0806987458 -0.0632517252
Ar  3.5359767438  0.0806987458  0.0632517252
2
step 77
Ar -2.5354244888 -0.0816916341 -0.0640299517
Ar  3.5354244935  0.0816916341  0.0640299517
2
step 78
Ar -2.5348641328 -0.0826990956 -0.0648196006
Ar  3.5348641375  0.0826990956  0.0648196006
2
step 79
Ar -2.5342946682 -0.0837229333 -0.0656220852
Ar  3.5342946729  0.0837229333  0.0656220852
2
step 80
Ar -2.5337150058 -0.0847651058 -0.0664389407
Ar  3.5337150105  0.0847651058  0.0664389407
2
step 81
Ar -2.5331239703 -0.0858277259 -0.0672718229
Ar  3.5331239750  0.0858277259  0.0672718229
2
step 82
Ar -2.5325203040 -0.0869130548 -0.0681225043
Ar  3.5325203087  0.0869130548  0.0681225043
2
step 83
Ar -2.5319026722 -0.0880234922 -0.0689928659
Ar  3.5319026769  0.0880234922  0.0689928659
2
step 84
Ar -2.5312696715 -0.0891615613 -0.0698848851
Ar  3.5312696763  0.0891615613  0.0698848851
2
step 85
Ar -2.5306198419 -0.0903298869 -0.0708006194
Ar  3.5306198467  0.0903298869  0.0708006194
2
step 86
Ar -2.5299516814 -0.0915311697 -0.0717421856
Ar  3.5299516862  0.0915311697  0.0717421856
2
step 87
Ar -2.5292636644 -0.0927681525 -0.0727117334
Ar  3.5292636691  0.0927681525  0.0727117334
2
step 88
Ar -2.5285542629 -0.0940435821 -0.0737114159
Ar  3.5285542677  0.0940435821  0.0737114159
2
step 89
Ar -2.5278219711 -0.0953601662 -0.0747433553
Ar  3.5278219759  0.0953601662  0.0747433553
2
step 90
Ar -2.5270653314 -0.0967205254 -0.0758096057
Ar  3.5270653362  0.0967205254  0.0758096057
2
step 91
Ar -2.5262829616 -0.0981271446 -0.0769121146
Ar  3.5262829664  0.0981271446  0.0769121146
2
step 92
Ar -2.5254735827 -0.0995823232 -0.0780526845
Ar  3.5254735875  0.0995823232  0.0780526845
2
step 93
Ar -2.5246360450 -0.1010881285 -0.0792329356
Ar  3.5246360498  0.1010881285  0.0792329356
2
step 94
Ar -2.5237693517 -0.1026463524 -0.0804542724
Ar  3.5237693566  0.1026463524  0.0804542724
2
step 95
Ar -2.5228726790 -0.1042584763 -0.0817178561
Ar  3.5228726838  0.1042584763  0.0817178561
2
step 96
Ar -2.5219453908 -0.1059256435 -0.0830245827
Ar  3.5219453957  0.1059256435  0.0830245827
2
step 97
Ar -2.5209870493 -0.1076486414 -0.0843750695
Ar  3.5209870542  0.1076486414  0.0843750695
2
step 98
Ar -2.5199974187 -0.1094278938 -0.0857696486
Ar  3.5199974236  0.1094278938  0.0857696486
2
step 99
Ar -2.5189764645 -0.1112634626 -0.0872083686
Ar  3.5189764695  0.1112634626  0.0872083686
2
step 100
Ar -2.5179243476 -0.1131550590 -0.0886910029
Ar  3.5179243525  0.1131550590  0.0886910029
2
step 101
Ar -2.5168414139 -0.1151020605 -0.0902170639
Ar  3.5168414189  0.1151020605  0.0902170639
2
step 102
Ar -2.5157281819 -0.1171035354 -0.0917858211
Ar  3.5157281869  0.1171035354  0.0917858211
2
step 103
Ar -2.5145853270 -0.1191582690 -0.0933963225
Ar  3.5145853320  0.1191582690  0.0933963225
2
step 104
Ar -2.5134136658 -0.1212647934 -0.0950474176
Ar  3.5134136709  0.1212647934  0.0950474176
2
step 105
Ar -2.5122141393 -0.1234214168 -0.0967377803
Ar  3.5122141443  0.1234214168  0.0967377803
2
step 106
Ar -2.5109877969 -0.1256262522 -0.0984659316
Ar  3.5109878020  0.1256262522  0.0984659316
2
step 107
Ar -2.5097357820 -0.1278772441 -0.1002302604
Ar  3.5097357871  0.1278772441  0.1002302604
2
step 108
Ar -2.5084593178 -0.1301721935 -0.1020290431
Ar  3.5084593228  0.1301721935  0.1020290431
2
step 109
Ar -2.5071596952 -0.1325087791 -0.1038604603
Ar  3.5071597003  0.1325087791  0.1038604603
2
step 110
Ar -2.5058382625 -0.1348845769 -0.1057226121
Ar  3.5058382676  0.1348845769  0.1057226121
2
step 111
Ar -2.5044964162 -0.1372970763 -0.1076135305
Ar  3.5044964214  0.1372970763  0.1076135305
2
step 112
Ar -2.5031355930 -0.1397436943 -0.1095311911
Ar  3.5031355982  0.1397436943  0.1095311911
2
step 113
Ar -2.5017572632 -0.1422217873 -0.1114735219
Ar  3.5017572684  0.1422217873  0.1114735219
2
step 114
Ar -2.5003629250 -0.1447286616 -0.1134384115
Ar  3.5003629302  0.1447286616  0.1134384115
2
step 115
Ar -2.4989540998 -0.1472615820 -0.1154237161
Ar  3.4989541051  0.1472615820  0.1154237161
2
step 116
Ar -2.4975323275 -0.1498177800 -0.1174272656
Ar  3.4975323328  0.1498177800  0.1174272656
2
step 117
Ar -2.4960991626 -0.1523944608 -0.1194468695
Ar  3.4960991679  0.1523944608  0.1194468695
2
step 118
Ar -2.4946561705 -0.1549888099 -0.1214803219
Ar  3.4946561758  0.1549888099  0.1214803219
2
step 119
Ar -2.4932049235 -0.1575980003 -0.1235254069
Ar  3.4932049288  0.1575980003  0.1235254069
2
step 120
Ar -2.4917469976 -0.1602191986 -0.1255799037
Ar  3.4917470030  0.1602191986  0.1255799037
2
step 121
Ar -2.4902839685 -0.1628495722 -0.1276415921
Ar  3.4902839739  0.1628495722  0.1276415921
2
step 122
Ar -2.4888174074 -0.1654862957 -0.1297082575
Ar  3.4888174128  0.1654862957  0.1297082575
2
step 123
Ar -2.4873488775 -0.1681265591 -0.1317776976
Ar  3.4873488829  0.1681265591  0.1317776975
2
step 124
Ar -2.4858799291 -0.1707675747 -0.1338477272
Ar  3.4858799346  0.1707675747  0.1338477272
2
step 125
Ar -2.4844120957 -0.1734065859 -0.1359161858
Ar  3.4844121011  0.1734065859  0.1359161857
2
step 126
Ar -2.4829468887 -0.1760408750 -0.1379809431
Ar  3.4829468942  0.1760408750  0.1379809431
2
step 127
Ar -2.4814857931 -0.1786677722 -0.1400399067
Ar  3.4814857986  0.1786677722  0.1400399067
2
step 128
Ar -2.4800302622 -0.1812846646 -0.1420910285
Ar  3.4800302677  0.1812846646  0.1420910285
2
step 129
Ar -2.4785817126 -0.1838890054 -0.1441323124
Ar  3.4785817182  0.1838890054  0.1441323124
2
step 130
Ar -2.4771415190 -0.1864783229 -0.1461618211
Ar  3.4771415246  0.1864783230  0.1461618211
2
step 131
Ar -2.4757110091 -0.1890502303 -0.1481776836
Ar  3.4757110147  0.1890502303  0.1481776836
2
step 132
Ar -2.4742914584 -0.1916024341 -0.1501781025
Ar  3.4742914641  0.1916024341  0.1501781025
2
step 133
Ar -2.4728840853 -0.1941327439 -0.1521613608
Ar  3.4728840910  0.1941327439  0.1521613608
2
step 134
Ar -2.4714900462 -0.1966390806 -0.1541258290
Ar  3.4714900518  0.1966390806  0.1541258290
2
step 135
Ar -2.4701104308 -0.1991194848 -0.1560699713
Ar  3.4701104366  0.1991194848  0.1560699713
2
step 136
Ar -2.4687462583 -0.2015721244 -0.1579923517
Ar  3.4687462641  0.2015721244  0.1579923517
2
step 137
Ar -2.4673984728 -0.2039953020 -0.1598916398
Ar  3.4673984785  0.2039953020  0.1598916398
2
step 138
Ar -2.4660679401 -0.2063874608 -0.1617666152
Ar  3.4660679458  0.2063874608  0.1617666152
2
step 139
Ar -2.4647554449 -0.2087471900 -0.1636161724
Ar  3.4647554507  0.2087471900  0.1636161724
2
step 140
Ar -2.4634616880 -0.2110732296 -0.1654393236
Ar  3.4634616939  0.2110732296  0.1654393236
2
step 141
Ar -2.4621872849 -0.2133644733 -0.1672352018
Ar  3.4621872907  0.2133644733  0.1672352018
2
step 142
Ar -2.4609327640 -0.2156199707 -0.1690030620
Ar  3.4609327699  0.2156199707  0.1690030620
2
step 143
Ar -2.4596985666 -0.2178389287 -0.1707422826
Ar  3.4596985725  0.2178389287  0.1707422826
2
step 144
Ar -2.4584850469 -0.2200207103 -0.1724523644
Ar  3.4584850528  0.2200207103  0.1724523644
2
step 145
Ar -2.4572924727 -0.2221648341 -0.1741329298
Ar  3.4572924787  0.2221648341  0.1741329298
2
step 146
Ar -2.4561210274 -0.2242709703 -0.1757837207
Ar  3.4561210334  0.2242709703  0.1757837207
2
step 147
Ar -2.4549708120 -0.2263389375 -0.1774045946
Ar  3.4549708180  0.2263389375  0.1774045946
2
step 148
Ar -2.4538418481 -0.2283686966 -0.1789955210
Ar  3.4538418541  0.2283686966  0.1789955210
2
step 149
Ar -2.4527340815 -0.2303603452 -0.1805565764
Ar  3.4527340875  0.2303603452  0.1805565764
2
step 150
Ar -2.4516473864 -0.2323141094 -0.1820879379
Ar  3.4516473924  0.2323141094  0.1820879379
2
step 151
Ar -2.4505815699 -0.2342303361 -0.1835898776
Ar  3.4505815760  0.2342303361  0.1835898776
2
step 152
Ar -2.4495363770 -0.2361094838 -0.1850627546
Ar  3.4495363831  0.2361094838  0.1850627546
2
step 153
Ar -2.4485114959 -0.2379521128 -0.1865070084
Ar  3.4485115020  0.2379521128  0.1865070084
2
step 154
Ar -2.4475065638 -0.2397588759 -0.1879231503
Ar  3.4475065699  0.2397588759  0.1879231503
2
step 155
Ar -2.4465211719 -0.2415305075 -0.1893117563
Ar  3.4465211780  0.2415305075  0.1893117563
2
step 156
Ar -2.4455548719 -0.2432678139 -0.1906734581
Ar  3.4455548781  0.2432678139  0.1906734580
2
step 157
Ar -2.4446071812 -0.2449716628 -0.1920089358
Ar  3.4446071874  0.2449716628  0.1920089358
2
step 158
Ar -2.4436775885 -0.2466429734 -0.1933189101
Ar  3.4436775946  0.2466429734  0.1933189101
2
step 159
Ar -2.4427655590 -0.2482827071 -0.1946041343
Ar  3.4427655652  0.2482827071  0.1946041343
2
step 160
Ar -2.4418705398 -0.2498918580 -0.1958653878
Ar  3.4418705460  0.2498918580  0.1958653878
2
step 161
Ar -2.4409919644 -0.2514714448 -0.1971034688
Ar  3.4409919707  0.2514714448  0.1971034688
2
step 162
Ar -2.4401292572 -0.2530225022 -0.1983191886
Ar  3.4401292635  0.2530225022  0.1983191886
2
step 163
Ar -2.4392818375 -0.2545460744 -0.1995133653
Ar  3.4392818437  0.2545460744  0.1995133653
2
step 164
Ar -2.4384491231 -0.2560432079 -0.2006868195
Ar  3.4384491294  0.2560432079  0.2006868195
2
step 165
Ar -2.4376305337 -0.2575149460 -0.2018403687
Ar  3.4376305400  0.2575149460  0.2018403687
2
step 166
Ar -2.4368254939 -0.2589623235 -0.2029748241
Ar  3.4368255002  0.2589623235  0.2029748241
2
step 167
Ar -2.4360334351 -0.2603863624 -0.2040909866
Ar  3.4360334414  0.2603863624  0.2040909866
2
step 168
Ar -2.4352537983 -0.2617880679 -0.2051896442
Ar  3.4352538047  0.2617880679  0.2051896442
2
step 169
Ar -2.4344860355 -0.2631684252 -0.2062715691
Ar  3.4344860419  0.2631684252  0.2062715690
2
step 170
Ar -2.4337296112 -0.2645283971 -0.2073375159
Ar  3.4337296176  0.2645283971  0.2073375159
2
step 171
Ar -2.4329840034 -0.2658689220 -0.2083882201
Ar  3.4329840098  0.2658689220  0.2083882201
2
step 172
Ar -2.4322487048 -0.2671909120 -0.2094243967
Ar  3.4322487112  0.2671909120  0.2094243966
2
step 173
Ar -2.4315232233 -0.2684952520 -0.2104467391
Ar  3.4315232297  0.2684952520  0.2104467391
2
step 174
Ar -2.4308070822 -0.2697827989 -0.2114559191
Ar  3.4308070886  0.2697827989  0.2114559191
2
step 175
Ar -2.4300998207 -0.2710543812 -0.2124525861
Ar  3.4300998271  0.2710543812  0.2124525861
2
step 176
Ar -2.4294009938 -0.2723107989 -0.2134373671
Ar  3.4294010003  0.2723107989  0.2134373671
2
step 177
Ar -2.4287101723 -0.2735528237 -0.2144108668
Ar  3.4287101788  0.2735528237  0.2144108668
2
step 178
Ar -2.4280269428 -0.2747811991 -0.2153736682
Ar  3.4280269493  0.2747811991  0.2153736682
2
step 179
Ar -2.4273509068 -0.2759966412 -0.2163263325
Ar  3.4273509133  0.2759966412  0.2163263325
2
step 180
Ar -2.4266816810 -0.2771998393 -0.2172693998
Ar  3.4266816875  0.2771998393  0.2172693998
2
step 181
Ar -2.4260188965 -0.2783914565 -0.2182033901
Ar  3.4260189031  0.2783914565  0.2182033901
2
step 182
Ar -2.4253621985 -0.2795721309 -0.2191288034
Ar  3.4253622051  0.2795721309  0.2191288034
2
step 183
Ar -2.4247112456 -0.2807424762 -0.2200461208
Ar  3.4247112522  0.2807424762  0.2200461208
2
step 184
Ar -2.4240657092 -0.2819030831 -0.2209558052
Ar  3.4240657158  0.2819030831  0.2209558052
2
step 185
Ar -2.4234252734 -0.2830545198 -0.2218583020
Ar  3.4234252800  0.2830545199  0.2218583020
2
step 186
Ar -2.4227896337 -0.2841973336 -0.2227540401
Ar  3.4227896404  0.2841973336  0.2227540400
2
step 187
Ar -2.4221584971 -0.2853320514 -0.2236434325
Ar  3.4221585037  0.2853320514  0.2236434325
2
step 188
Ar -2.4215315809 -0.2864591812 -0.2245268775
Ar  3.4215315875  0.2864591812  0.2245268775
2
step 189
Ar -2.4209086127 -0.2875792129 -0.2254047591
Ar  3.4209086193  0.2875792129  0.2254047591
2
step 190
Ar -2.4202893294 -0.2886926195 -0.2262774479
Ar  3.4202893361  0.2886926195  0.2262774479
2
step 191
Ar -2.4196734769 -0.2897998580 -0.2271453021
Ar  3.4196734836  0.2897998580  0.2271453021
2
step 192
Ar -2.4190608093 -0.2909013703 -0.2280086680
Ar  3.4190608161  0.2909013703  0.2280086680
2
step 193
Ar -2.4184510888 -0.2919975842 -0.2288678811
Ar  3.4184510955  0.2919975842  0.2288678811
2
step 194
Ar -2.4178440844 -0.2930889145 -0.2297232665
Ar  3.4178440912  0.2930889145  0.2297232665
2
step 195
Ar -2.4172395725 -0.2941757638 -0.2305751396
Ar  3.4172395793  0.2941757638  0.2305751396
2
step 196
Ar -2.4166373354 -0.2952585233 -0.2314238072
Ar  3.4166373421  0.2952585233  0.2314238072
2
step 197
Ar -2.4160371612 -0.2963375737 -0.2322695676
Ar  3.4160371680  0.2963375737  0.2322695675
2
step 198
Ar -2.4154388436 -0.2974132862 -0.2331127116
Ar  3.4154388504  0.2974132862  0.2331127116
2
step 199
Ar -2.4148421812 -0.2984860230 -0.2339535234
Ar  3.4148421880  0.2984860230  0.2339535234
2
step 200
Ar -2.4142469768 -0.2995561382 -0.2347922803
Ar  3.4142469837  0.2995561382  0.2347922803
2
step 201
Ar -2.4136530377 -0.3006239787 -0.2356292543
Ar  3.4136530446  0.3006239787  0.2356292543
2
step 202
Ar -2.4130601745 -0.3016898848 -0.2364647122
Ar  3.4130601814  0.3016898848  0.2364647122
2
step 203
Ar -2.4124682012 -0.3027541910 -0.2372989160
Ar  3.4124682081  0.3027541910  0.2372989160
2
step 204
Ar -2.4118769346 -0.3038172266 -0.2381321239
Ar  3.4118769415  0.3038172266  0.2381321239
2
step 205
Ar -2.4112861940 -0.3048793165 -0.2389645906
Ar  3.4112862009  0.3048793165  0.2389645906
2
step 206
Ar -2.4106958007 -0.3059407819 -0.2397965678
Ar  3.4106958077  0.3059407819  0.2397965678
2
step 207
Ar -2.4101055778 -0.3070019410 -0.2406283050
Ar  3.4101055848  0.3070019410  0.2406283050
2
step 208
Ar -2.4095153495 -0.3080631098 -0.2414600497
Ar  3.4095153565  0.3080631098  0.2414600497
2
step 209
Ar -2.4089249411 -0.3091246025 -0.2422920483
Ar  3.4089249481  0.3091246025  0.2422920483
2
step 210
Ar -2.4083341781 -0.3101867326 -0.2431245466
Ar  3.4083341851  0.3101867326  0.2431245466
2
step 211
Ar -2.4077428863 -0.3112498135 -0.2439577900
Ar  3.4077428933  0.3112498135  0.2439577900
2
step 212
Ar -2.4071508910 -0.3123141591 -0.2447920248
Ar  3.4071508981  0.3123141592  0.2447920247
2
step 213
Ar -2.4065580168 -0.3133800851 -0.2456274981
Ar  3.4065580239  0.3133800851  0.2456274981
2
step 214
Ar -2.4059640869 -0.3144479091 -0.2464644592
Ar  3.4059640940  0.3144479091  0.2464644592
2
step 215
Ar -2.4053689227 -0.3155179521 -0.2473031596
Ar  3.4053689298  0.3155179521  0.2473031596
2
step 216
Ar -2.4047723433 -0.3165905395 -0.2481438543
Ar  3.4047723504  0.3165905395  0.2481438542
2
step 217
Ar -2.4041741650 -0.3176660016 -0.2489868021
Ar  3.4041741722  0.3176660016  0.2489868021
2
step 218
Ar -2.4035742005 -0.3187446751 -0.2498322670
Ar  3.4035742077  0.3187446751  0.2498322670
2
step 219
Ar -2.4029722584 -0.3198269042 -0.2506805188
Ar  3.4029722655  0.3198269042  0.2506805188
2
step 220
Ar -2.4023681422 -0.3209130420 -0.2515318343
Ar  3.4023681493  0.3209130421  0.2515318343
2
step 221
Ar -2.4017616498 -0.3220034520 -0.2523864983
Ar  3.4017616570  0.3220034520  0.2523864983
2
step 222
Ar -2.4011525724 -0.3230985095 -0.2532448050
Ar  3.4011525797  0.3230985095  0.2532448050
2
step 223
Ar -2.4005406937 -0.3241986034 -0.2541070593
Ar  3.4005407010  0.3241986034  0.2541070593
2
step 224
Ar -2.3999257886 -0.3253041387 -0.2549735785
Ar  3.3999257958  0.3253041387  0.2549735785
2
step 225
Ar -2.3993076217 -0.3264155382 -0.2558446941
Ar  3.3993076290  0.3264155382  0.2558446941
2
step 226
Ar -2.3986859465 -0.3275332452 -0.2567207535
Ar  3.3986859538  0.3275332452  0.2567207535
2
step 227
Ar -2.3980605034 -0.3286577266 -0.2576021227
Ar  3.3980605107  0.3286577266  0.2576021227
2
step 228
Ar -2.3974310178 -0.3297894760 -0.2584891886
Ar  3.3974310251  0.3297894760  0.2584891885
2
step 229
Ar -2.3967971983 -0.3309290172 -0.2593823617
Ar  3.3967972056  0.3309290172  0.2593823617
2
step 230
Ar -2.3961587342 -0.3320769090 -0.2602820799
Ar  3.3961587416  0.3320769090  0.2602820799
2
step 231
Ar -2.3955152929 -0.3332337491 -0.2611888119
Ar  3.3955153003  0.3332337492  0.2611888119
2
step 232
Ar -2.3948665169 -0.3344001808 -0.2621030617
Ar  3.3948665243  0.3344001808  0.2621030617
2
step 233
Ar -2.3942120199 -0.3355768979 -0.2630253733
Ar  3.3942120274  0.3355768979  0.2630253733
2
step 234
Ar -2.3935513836 -0.3367646529 -0.2639563364
Ar  3.3935513911  0.3367646529  0.2639563364
2
step 235
Ar -2.3928841526 -0.3379642647 -0.2648965928
Ar  3.3928841601  0.3379642647  0.2648965928
2
step 236
Ar -2.3922098292 -0.3391766276 -0.2658468436
Ar  3.3922098367  0.3391766277  0.2658468436
2
step 237
Ar -2.3915278681 -0.3404027224 -0.2668078575
Ar  3.3915278757  0.3404027224  0.2668078575
2
step 238
Ar -2.3908376694 -0.3416436276 -0.2677804797
Ar  3.3908376770  0.3416436276  0.2677804797
2
step 239
Ar -2.3901385714 -0.3429005329 -0.2687656428
Ar  3.3901385790  0.3429005329  0.2687656428
2
step 240
Ar -2.3894298421 -0.3441747542 -0.2697643782
Ar  3.3894298497  0.3441747542  0.2697643782
2
step 241
Ar -2.3887106705 -0.3454677495 -0.2707778287
Ar  3.3887106782  0.3454677495  0.2707778287
2
step 242
Ar -2.3879801567 -0.3467811370 -0.2718072627
Ar  3.3879801644  0.3467811371  0.2718072626
2
step 243
Ar -2.3872373008 -0.3481167143 -0.2728540889
Ar  3.3872373085  0.3481167143  0.2728540889
2
step 244
Ar -2.3864809924 -0.3494764778 -0.2739198724
Ar  3.3864810001  0.3494764778  0.2739198724
2
step 245
Ar -2.3857099988 -0.3508626438 -0.2750063501
Ar  3.3857100066  0.3508626438  0.2750063501
2
step 246
Ar -2.3849229542 -0.3522776679 -0.2761154468
Ar  3.3849229619  0.3522776679  0.2761154468
2
step 247
Ar -2.3841183492 -0.3537242636 -0.2772492894
Ar  3.3841183570  0.3537242636  0.2772492894
2
step 248
Ar -2.3832945229 -0.3552054172 -0.2784102185
Ar  3.3832945307  0.3552054173  0.2784102185
2
step 249
Ar -2.3824496569 -0.3567243981 -0.2796007967
Ar  3.3824496647  0.3567243982  0.2796007966
2
step 250
Ar -2.3815817740 -0.3582847609 -0.2808238099
Ar  3.3815817819  0.3582847609  0.2808238099
2
step 251
Ar -2.3806887430 -0.3598903372 -0.2820822616
Ar  3.3806887510  0.3598903373  0.2820822616
2
step 252
Ar -2.3797682903 -0.3615452151 -0.2833793559
Ar  3.3797682983  0.3615452151  0.2833793558
2
step 253
Ar -2.3788180209 -0.3632537003 -0.2847184676
Ar  3.3788180289  0.3632537003  0.2847184675
2
step 254
Ar -2.3778354502 -0.3650202597 -0.2861030979
Ar  3.3778354583  0.3650202597  0.2861030979
2
step 255
Ar -2.3768180476 -0.3668494433 -0.2875368131
Ar  3.3768180557  0.3668494433  0.2875368131
2
step 256
Ar -2.3757632919 -0.3687457841 -0.2890231661
Ar  3.3757633000  0.3687457841  0.2890231661
2
step 257
Ar -2.3746687378 -0.3707136779 -0.2905656025
Ar  3.3746687460  0.3707136779  0.2905656024
2
step 258
Ar -2.3735320931 -0.3727572463 -0.2921673527
Ar  3.3735321013  0.3727572464  0.2921673526
2
step 259
Ar -2.3723513000 -0.3748801890 -0.2938313164
Ar  3.3723513082  0.3748801891  0.2938313164
2
step 260
Ar -2.3711246193 -0.3770856329 -0.2955599446
Ar  3.3711246275  0.3770856329  0.2955599446
2
step 261
Ar -2.3698507098 -0.3793759892 -0.2973551272
Ar  3.3698507181  0.3793759892  0.2973551272
2
step 262
Ar -2.3685286984 -0.3817528276 -0.2992180946
Ar  3.3685287067  0.3817528276  0.2992180946
2
step 263
Ar -2.3671582348 -0.3842167780 -0.3011493404
Ar  3.3671582432  0.3842167780  0.3011493404
2
step 264
Ar -2.3657395274 -0.3867674658 -0.3031485710
Ar  3.3657395358  0.3867674658  0.3031485710
2
step 265
Ar -2.3642733574 -0.3894034862 -0.3052146855
Ar  3.3642733659  0.3894034863  0.3052146854
2
step 266
Ar -2.3627610716 -0.3921224181 -0.3073457859
Ar  3.3627610802  0.3921224181  0.3073457859
2
step 267
Ar -2.3612045544 -0.3949208735 -0.3095392169
Ar  3.3612045630  0.3949208735  0.3095392169
2
step 268
Ar -2.3596061828 -0.3977945787 -0.3117916287
Ar  3.3596061915  0.3977945787  0.3117916287
2
step 269
Ar -2.3579687684 -0.4007384787 -0.3140990594
Ar  3.3579687772  0.4007384788  0.3140990593
2
step 270
Ar -2.3562954904 -0.4037468578 -0.3164570287
Ar  3.3562954993  0.4037468578  0.3164570287
2
step 271
Ar -2.3545898247 -0.4068134667 -0.3188606385
Ar  3.3545898336  0.4068134667  0.3188606385
2
step 272
Ar -2.3528554719 -0.4099316518 -0.3213046739
Ar  3.3528554809  0.4099316518  0.3213046739
2
step 273
Ar -2.3510962886 -0.4130944797 -0.3237837003
Ar  3.3510962976  0.4130944797  0.3237837003
2
step 274
Ar -2.3493162225 -0.4162948527 -0.3262921546
Ar  3.3493162316  0.4162948527  0.3262921546
2
step 275
Ar -2.3475192539 -0.4195256146 -0.3288244277
Ar  3.3475192630  0.4195256146  0.3288244277
2
step 276
Ar -2.3457093439 -0.4227796438 -0.3313749377
Ar  3.3457093531  0.4227796438  0.3313749377
2
step 277
Ar -2.3438903892 -0.4260499344 -0.3339381934
Ar  3.3438903984  0.4260499344  0.3339381934
2
step 278
Ar -2.3420661833 -0.4293296661 -0.3365088491
Ar  3.3420661926  0.4293296661  0.3365088491
2
step 279
Ar -2.3402403840 -0.4326122626 -0.3390817502
Ar  3.3402403934  0.4326122626  0.3390817501
2
step 280
Ar -2.3384164859 -0.4358914408 -0.3416519720
Ar  3.3384164954  0.4358914408  0.3416519720
2
step 281
Ar -2.3365977984 -0.4391612510 -0.3442148512
Ar  3.3365978080  0.4391612510  0.3442148512
2
step 282
Ar -2.3347874273 -0.4424161092 -0.3467660110
Ar  3.3347874369  0.4424161092  0.3467660110
2
step 283
Ar -2.3329882607 -0.4456508227 -0.3493013814
Ar  3.3329882704  0.4456508228  0.3493013814
2
step 284
Ar -2.3312029585 -0.4488606097 -0.3518172144
Ar  3.3312029682  0.4488606098  0.3518172144
2
step 285
Ar -2.3294339443 -0.4520411124 -0.3543100943
Ar  3.3294339541  0.4520411125  0.3543100943
2
step 286
Ar -2.3276834014 -0.4551884058 -0.3567769447
Ar  3.3276834113  0.4551884058  0.3567769447
2
step 287
Ar -2.3259532704 -0.4582990006 -0.3592150308
Ar  3.3259532804  0.4582990006  0.3592150308
2
step 288
Ar -2.3242452502 -0.4613698427 -0.3616219587
Ar  3.3242452602  0.4613698427  0.3616219586
2
step 289
Ar -2.3225608009 -0.4643983066 -0.3639956705
Ar  3.3225608110  0.4643983066  0.3639956705
2
step 290
Ar -2.3209011496 -0.4673821862 -0.3663344371
Ar  3.3209011598  0.4673821862  0.3663344371
2
step 291
Ar -2.3192672981 -0.4703196807 -0.3686368471
Ar  3.3192673083  0.4703196807  0.3686368470
2
step 292
Ar -2.3176600321 -0.4732093770 -0.3709017928
Ar  3.3176600424  0.4732093771  0.3709017928
2
step 293
Ar -2.3160799332 -0.4760502298 -0.3731284549
Ar  3.3160799436  0.4760502298  0.3731284548
2
step 294
Ar -2.3145273917 -0.4788415373 -0.3753162834
Ar  3.3145274021  0.4788415373  0.3753162833
2
step 295
Ar -2.3130026207 -0.4815829164 -0.3774649780
Ar  3.3130026311  0.4815829164  0.3774649779
2
step 296
Ar -2.3115056714 -0.4842742749 -0.3795744664
Ar  3.3115056819  0.4842742749  0.3795744663
2
step 297
Ar -2.3100364490 -0.4869157833 -0.3816448822
Ar  3.3100364596  0.4869157833  0.3816448821
2
step 298