2
step 0
Ar -2.5808618548  0.0000000000  0.0000000000
Ar  3.5808618593  0.0000000000  0.0000000000
2
step 1
Ar -2.5800038566 -0.0015425911 -0.0012090838
Ar  3.5800038611  0.0015425911  0.0012090838
2
step 2
Ar -2.5791599454 -0.0030598550 -0.0023983162
Ar  3.5791599499  0.0030598550  0.0023983162
2
step 3
Ar -2.5783298602 -0.0045522615 -0.0035680653
Ar  3.5783298647  0.0045522615  0.0035680653
2
step 4
Ar -2.5775133238 -0.0060203086 -0.0047187215
Ar  3.5775133283  0.0060203086  0.0047187215
2
step 5
Ar -2.5767100455 -0.0074645190 -0.0058506944
Ar  3.5767100500  0.0074645190  0.0058506944
2
step 6
Ar -2.5759197226 -0.0088854370 -0.0069644108
Ar  3.5759197271  0.0088854370  0.0069644108
2
step 7
Ar -2.5751420424 -0.0102836247 -0.0080603112
Ar  3.5751420468  0.0102836247  0.0080603112
2
step 8
Ar -2.5743766840 -0.0116596591 -0.0091388478
Ar  3.5743766884  0.0116596591  0.0091388478
2
step 9
Ar -2.5736233199 -0.0130141289 -0.0102004820
Ar  3.5736233244  0.0130141289  0.0102004820
2
step 10
Ar -2.5728816179 -0.0143476316 -0.0112456822
Ar  3.5728816224  0.0143476316  0.0112456822
2
step 11
Ar -2.5721512421 -0.0156607709 -0.0122749216
Ar  3.5721512466  0.0156607709  0.0122749216
2
step 12
Ar -2.5714318547 -0.0169541542 -0.0132886762
Ar  3.5714318592  0.0169541542  0.0132886762
2
step 13
Ar -2.5707231171 -0.0182283902 -0.0142874232
Ar  3.5707231216  0.0182283902  0.0142874232
2
step 14
Ar -2.5700246912 -0.0194840871 -0.0152716391
Ar  3.5700246956  0.0194840871  0.0152716391
2
step 15
Ar -2.5693362400 -0.0207218503 -0.0162417986
Ar  3.5693362445  0.0207218503  0.0162417986
2
step 16
Ar -2.5686574294 -0.0219422809 -0.0171983729
Ar  3.5686574339  0.0219422809  0.0171983729
2
step 17
Ar -2.5679879280 -0.0231459743 -0.0181418285
Ar  3.5679879325  0.0231459743  0.0181418285
2
step 18
Ar -2.5673274087 -0.0243335189 -0.0190726267
Ar  3.5673274132  0.0243335189  0.0190726267
2
step 19
Ar -2.5666755489 -0.0255054947 -0.0199912220
Ar  3.5666755534  0.0255054947  0.0199912220
2
step 20
Ar -2.5660320310 -0.0266624726 -0.0208980619
Ar  3.5660320355  0.0266624726  0.0208980619
2
step 21
Ar -2.5653965432 -0.0278050133 -0.0217935860
Ar  3.5653965477  0.0278050133  0.0217935860
2
step 22
Ar -2.5647687794 -0.0289336669 -0.0226782255
Ar  3.5647687839  0.0289336669  0.0226782255
2
step 23
Ar -2.5641484399 -0.0300489725 -0.0235524026
Ar  3.5641484444  0.0300489725  0.0235524026
2
step 24
Ar -2.5635352315 -0.0311514570 -0.0244165306
Ar  3.5635352361  0.0311514570  0.0244165306
2
step 25
Ar -2.5629288677 -0.0322416359 -0.0252710135
Ar  3.5629288722  0.0322416359  0.0252710135
2
step 26
Ar -2.5623290685 -0.0333200121 -0.0261162454
Ar  3.5623290730  0.0333200121  0.0261162454
2
step 27
Ar -2.5617355609 -0.0343870766 -0.0269526112
Ar  3.5617355655  0.0343870766  0.0269526112
2
step 28
Ar -2.5611480789 -0.0354433078 -0.0277804859
Ar  3.5611480835  0.0354433078  0.0277804859
2
step 29
Ar -2.5605663631 -0.0364891720 -0.0286002349
Ar  3.5605663677  0.0364891720  0.0286002349
2
step 30
Ar -2.5599901609 -0.0375251234 -0.0294122142
Ar  3.5599901654  0.0375251234  0.0294122142
2
step 31
Ar -2.5594192264 -0.0385516040 -0.0302167703
Ar  3.5594192309  0.0385516040  0.0302167703
2
step 32
Ar -2.5588533201 -0.0395690443 -0.0310142406
Ar  3.5588533246  0.0395690443  0.0310142406
2
step 33
Ar -2.5582922091 -0.0405778632 -0.0318049534
Ar  3.5582922137  0.0405778632  0.0318049534
2
step 34
Ar -2.5577356667 -0.0415784682 -0.0325892282
Ar  3.5577356713  0.0415784682  0.0325892282
2
step 35
Ar -2.5571834722 -0.0425712562 -0.0333673761
Ar  3.5571834768  0.0425712562  0.0333673761
2
step 36
Ar -2.5566354107 -0.0435566135 -0.0341396998
Ar  3.5566354152  0.0435566135  0.0341396998
2
step 37
Ar -2.5560912730 -0.0445349163 -0.0349064940
Ar  3.5560912775  0.0445349163  0.0349064940
2
step 38
Ar -2.5555508552 -0.0455065309 -0.0356680461
Ar  3.5555508598  0.0455065309  0.0356680461
2
step 39
Ar -2.5550139589 -0.0464718144 -0.0364246359
Ar  3.5550139634  0.0464718144  0.0364246359
2
step 40
Ar -2.5544803901 -0.0474311153 -0.0371765365
Ar  3.5544803947  0.0474311153  0.0371765365
2
step 41
Ar -2.5539499599 -0.0483847734 -0.0379240143
Ar  3.5539499644  0.0483847734  0.0379240143
2
step 42
Ar -2.5534224835 -0.0493331207 -0.0386673295
Ar  3.5534224881  0.0493331207  0.0386673295
2
step 43
Ar -2.5528977804 -0.0502764821 -0.0394067367
Ar  3.5528977850  0.0502764821  0.0394067367
2
step 44
Ar -2.5523756737 -0.0512151754 -0.0401424851
Ar  3.5523756783  0.0512151754  0.0401424851
2
step 45
Ar -2.5518559901 -0.0521495122 -0.0408748188
Ar  3.5518559947  0.0521495122  0.0408748188
2
step 46
Ar -2.5513385594 -0.0530797985 -0.0416039778
Ar  3.5513385640  0.0530797985  0.0416039778
2
step 47
Ar -2.5508232142 -0.0540063353 -0.0423301979
Ar  3.5508232187  0.0540063353  0.0423301979
2
step 48
Ar -2.5503097895 -0.0549294193 -0.0430537117
Ar  3.5503097940  0.0549294193  0.0430537117
2
step 49
Ar -2.5497981223 -0.0558493433 -0.0437747487
Ar  3.5497981269  0.0558493433  0.0437747487
2
step 50
Ar -2.5492880513 -0.0567663977 -0.0444935365
Ar  3.5492880559  0.0567663977  0.0444935365
2
step 51
Ar -2.5487794160 -0.0576808707 -0.0452103009
Ar  3.5487794206  0.0576808707  0.0452103009
2
step 52
Ar -2.5482720569 -0.0585930494 -0.0459252672
Ar  3.5482720615  0.0585930494  0.0459252672
2
step 53
Ar -2.5477658140 -0.0595032211 -0.0466386603
Ar  3.5477658187  0.0595032211  0.0466386603
2
step 54
Ar -2.5472605270 -0.0604116743 -0.0473507065
Ar  3.5472605316  0.0604116743  0.0473507065
2
step 55
Ar -2.5467560340 -0.0613187001 -0.0480616338
Ar  3.5467560386  0.0613187001  0.0480616338
2
step 56
Ar -2.5462521708 -0.0622245934 -0.0487716735
Ar  3.5462521754  0.0622245934  0.0487716735
2
step 57
Ar -2.5457487702 -0.0631296552 -0.0494810615
Ar  3.5457487748  0.0631296552  0.0494810615
2
step 58
Ar -2.5452456604 -0.0640341939 -0.0501900395
Ar  3.5452456650  0.0640341939  0.0501900395
2
step 59
Ar -2.5447426644 -0.0649385281 -0.0508988572
Ar  3.5447426691  0.0649385281  0.0508988572
2
step 60
Ar -2.5442395980 -0.0658429889 -0.0516077741
Ar  3.5442396027  0.0658429889  0.0516077741
2
step 61
Ar -2.5437362685 -0.0667479228 -0.0523170618
Ar  3.5437362731  0.0667479228  0.0523170618
2
step 62
Ar -2.5432324724 -0.0676536955 -0.0530270070
Ar  3.5432324771  0.0676536955  0.0530270070
2
step 63
Ar -2.5427279938 -0.0685606953 -0.0537379140
Ar  3.5427279984  0.0685606953  0.0537379140
2
step 64
Ar -2.5422226012 -0.0694693384 -0.0544501090
Ar  3.5422226059  0.0694693384  0.0544501090
2
step 65
Ar -2.5417160451 -0.0703800733 -0.0551639436
Ar  3.5417160497  0.0703800733  0.0551639436
2
step 66
Ar -2.5412080544 -0.0712933875 -0.0558797998
Ar  3.5412080590  0.0712933875  0.0558797998
2
step 67
Ar -2.5406983328 -0.0722098136 -0.0565980951
Ar  3.5406983375  0.0722098136  0.0565980951
2
step 68
Ar -2.5401865546 -0.0731299373 -0.0573192886
Ar  3.5401865593  0.0731299373  0.0573192886
2
step 69
Ar -2.5396723600 -0.0740544055 -0.0580438873
Ar  3.5396723647  0.0740544055  0.0580438873
2
step 70
Ar -2.5391553499 -0.0749839355 -0.0587724535
Ar  3.5391553546  0.0749839355  0.0587724535
2
step 71
Ar -2.5386350807 -0.0759193253 -0.0595056126
Ar  3.5386350854  0.0759193253  0.0595056126
2
step 72
Ar -2.5381110580 -0.0768614632 -0.0602440609
Ar  3.5381110628  0.0768614632  0.0602440609
2
step 73
Ar -2.5375827312 -0.0778113397 -0.0609885746
Ar  3.5375827359  0.0778113397  0.0609885746
2
step 74
Ar -2.5370494868 -0.0787700573 -0.0617400181
Ar  3.5370494915  0.0787700573  0.0617400181
2
step 75
Ar -2.5365106430 -0.0797388422 -0.0624993522
Ar  3.5365106477  0.0797388422  0.0624993522
2
step 76
Ar -2.5359654438 -0.0807190533 -0.0632676422
Ar  3.5359654486  0.0807190533  0.0632676422
2
step 77
Ar -2.5354130546 -0.0817121915 -0.0640460645
Ar  3.5354130593  0.0817121915  0.0640460645
2
step 78
Ar -2.5348525576 -0.0827199065 -0.0648359122
Ar  3.5348525623  0.0827199065  0.0648359122
2
step 79
Ar -2.5342829497 -0.0837440019 -0.0656385988
Ar  3.5342829545  0.0837440019  0.0656385988
2
step 80
Ar -2.5337031414 -0.0847864367 -0.0664556598
Ar  3.5337031462  0.0847864367  0.0664556598
2
step 81
Ar -2.5331119572 -0.0858493241 -0.0672887516
Ar  3.5331119620  0.0858493241  0.0672887516
2
step 82
Ar -2.5325081390 -0.0869349261 -0.0681396471
Ar  3.5325081438  0.0869349261  0.0681396471
2
step 83
Ar -2.5318903517 -0.0880456430 -0.0690102277
Ar  3.5318903565  0.0880456430  0.0690102277
2
step 84
Ar -2.5312571918 -0.0891839984 -0.0699024713
Ar  3.5312571966  0.0891839984  0.0699024713
2
step 85
Ar -2.5306071987 -0.0903526181 -0.0708184361
Ar  3.5306072035  0.0903526181  0.0708184361
2
step 86
Ar -2.5299388700 -0.0915542032 -0.0717602392
Ar  3.5299388749  0.0915542032  0.0717602392
2
step 87
Ar -2.5292506798 -0.0927914972 -0.0727300310
Ar  3.5292506847  0.0927914972  0.0727300310
2
step 88
Ar -2.5285410998 -0.0940672479 -0.0737299651
Ar  3.5285411047  0.0940672479  0.0737299651
2
step 89
Ar -2.5278086238 -0.0953841632 -0.0747621642
Ar  3.5278086287  0.0953841632  0.0747621642
2
step 90
Ar -2.5270517936 -0.0967448647 -0.0758286829
Ar  3.5270517985  0.0967448647  0.0758286829
2
step 91
Ar -2.5262692269 -0.0981518379 -0.0769314692
Ar  3.5262692318  0.0981518379  0.0769314692
2
step 92
Ar -2.5254596444 -0.0996073827 -0.0780723262
Ar  3.5254596493  0.0996073827  0.0780723262
2
step 93
Ar -2.5246218959 -0.1011135669 -0.0792528742
Ar  3.5246219009  0.1011135669  0.0792528742
2
step 94
Ar -2.5237549846 -0.1026721829 -0.0804745184
Ar  3.5237549895  0.1026721829  0.0804745184
2
step 95
Ar -2.5228580862 -0.1042847125 -0.0817384200
Ar  3.5228580911  0.1042847125  0.0817384200
2
step 96
Ar -2.5219305646 -0.1059522993 -0.0830454755
Ar  3.5219305696  0.1059522993  0.0830454755
2
step 97
Ar -2.5209719820 -0.1076757308 -0.0843963022
Ar  3.5209719870  0.1076757308  0.0843963022
2
step 98
Ar -2.5199821023 -0.1094554309 -0.0857912322
Ar  3.5199821074  0.1094554309  0.0857912322
2
step 99
Ar -2.5189608913 -0.1112914617 -0.0872303142
Ar  3.5189608963  0.1112914617  0.0872303142
2
step 100
Ar -2.5179085095 -0.1131835340 -0.0887133217
Ar  3.5179085146  0.1131835340  0.0887133217
2
step 101
Ar -2.5168253033 -0.1151310255 -0.0902397667
Ar  3.5168253084  0.1151310255  0.0902397667
2
step 102
Ar -2.5157117912 -0.1171330040 -0.0918089186
Ar  3.5157117963  0.1171330040  0.0918089186
2
step 103
Ar -2.5145686487 -0.1191882547 -0.0934198253
Ar  3.5145686539  0.1191882547  0.0934198253
2
step 104
Ar -2.5133966927 -0.1212953092 -0.0950713359
Ar  3.5133966978  0.1212953092  0.0950713359
2
step 105
Ar -2.5121968643 -0.1234524753 -0.0967621240
Ar  3.5121968694  0.1234524753  0.0967621240
2
step 106
Ar -2.5109702133 -0.1256578655 -0.0984907102
Ar  3.5109702185  0.1256578655  0.0984907102
2
step 107
Ar -2.5097178833 -0.1279094239 -0.1002554830
Ar  3.5097178886  0.1279094239  0.1002554830
2
step 108
Ar -2.5084410978 -0.1302049508 -0.1020547183
Ar  3.5084411031  0.1302049508  0.1020547183
2
step 109
Ar -2.5071411482 -0.1325421244 -0.1038865964
Ar  3.5071411535  0.1325421244  0.1038865964
2
step 110
Ar -2.5058193830 -0.1349185201 -0.1057492167
Ar  3.5058193883  0.1349185201  0.1057492167
2
step 111
Ar -2.5044771991 -0.1373316266 -0.1076406111
Ar  3.5044772044  0.1373316266  0.1076406111
2
step 112
Ar -2.5031160334 -0.1397788602 -0.1095587542
Ar  3.5031160388  0.1397788602  0.1095587542
2
step 113
Ar -2.5017373567 -0.1422575768 -0.1115015738
Ar  3.5017373621  0.1422575768  0.1115015738
2
step 114
Ar -2.5003426677 -0.1447650820 -0.1134669578
Ar  3.5003426731  0.1447650820  0.1134669578
2
step 115
Ar -2.4989334880 -0.1472986398 -0.1154527620
Ar  3.4989334934  0.1472986398  0.1154527620
2
step 116
Ar -2.4975113579 -0.1498554811 -0.1174568157
Ar  3.4975113634  0.1498554811  0.1174568157
2
step 117
Ar -2.4960778323 -0.1524328102 -0.1194769278
Ar  3.4960778378  0.1524328102  0.1194769278
2
step 118
Ar -2.4946344770 -0.1550278122 -0.1215108919
Ar  3.4946344826  0.1550278122  0.1215108919
2
step 119
Ar -2.4931828649 -0.1576376592 -0.1235564916
Ar  3.4931828704  0.1576376592  0.1235564916
2
step 120
Ar -2.4917245721 -0.1602595172 -0.1256115054
Ar  3.4917245777  0.1602595172  0.1256115054
2
step 121
Ar -2.4902611748 -0.1628905526 -0.1276737126
Ar  3.4902611804  0.1628905526  0.1276737126
2
step 122
Ar -2.4887942447 -0.1655279397 -0.1297408981
Ar  3.4887942503  0.1655279397  0.1297408981
2
step 123
Ar -2.4873253452 -0.1681688675 -0.1318108589
Ar  3.4873253509  0.1681688675  0.1318108589
2
step 124
Ar -2.4858560272 -0.1708105477 -0.1338814095
Ar  3.4858560329  0.1708105477  0.1338814095
2
step 125
Ar -2.4843878243 -0.1734502230 -0.1359503885
Ar  3.4843878301  0.1734502230  0.1359503885
2
step 126
Ar -2.4829222486 -0.1760851750 -0.1380156655
Ar  3.4829222544  0.1760851750  0.1380156655
2
step 127
Ar -2.4814607854 -0.1787127332 -0.1400751472
Ar  3.4814607912  0.1787127332  0.1400751472
2
step 128
Ar -2.4800048882 -0.1813302842 -0.1421267852
Ar  3.4800048940  0.1813302842  0.1421267852
2
step 129
Ar -2.4785559741 -0.1839352803 -0.1441685827
Ar  3.4785559799  0.1839352803  0.1441685827
2
step 130
Ar -2.4771154181 -0.1865252495 -0.1461986021
Ar  3.4771154240  0.1865252495  0.1461986021
2
step 131
Ar -2.4756845482 -0.1890978040 -0.1482149719
Ar  3.4756845541  0.1890978040  0.1482149719
2
step 132
Ar -2.4742646402 -0.1916506501 -0.1502158942
Ar  3.4742646462  0.1916506501  0.1502158942
2
step 133
Ar -2.4728569130 -0.1941815967 -0.1521996516
Ar  3.4728569189  0.1941815967  0.1521996516
2
step 134
Ar -2.4714625230 -0.1966885641 -0.1541646142
Ar  3.4714625290  0.1966885641  0.1541646142
2
step 135
Ar -2.4700825605 -0.1991695924 -0.1561092457
Ar  3.4700825666  0.1991695924  0.1561092457
2
step 136
Ar -2.4687180447 -0.2016228493 -0.1580321099
Ar  3.4687180508  0.2016228493  0.1580321099
2
step 137
Ar -2.4673699200 -0.2040466367 -0.1599318759
Ar  3.4673699261  0.2040466367  0.1599318759
2
step 138
Ar -2.4660390525 -0.2064393974 -0.1618073232
Ar  3.4660390586  0.2064393974  0.1618073232
2
step 139
Ar -2.4647262270 -0.2087997205 -0.1636573458
Ar  3.4647262331  0.2087997205  0.1636573458
2
step 140
Ar -2.4634321446 -0.2111263454 -0.1654809558
Ar  3.4634321507  0.2111263454  0.1654809558
2
step 141
Ar -2.4621574207 -0.2134181656 -0.1672772859
Ar  3.4621574270  0.2134181656  0.1672772859
2
step 142
Ar -2.4609025842 -0.2156742307 -0.1690455910
Ar  3.4609025904  0.2156742307  0.1690455910
2
step 143
Ar -2.4596680762 -0.2178937470 -0.1707852492
Ar  3.4596680825  0.2178937470  0.1707852492
2
step 144
Ar -2.4584542511 -0.2200760777 -0.1724957613
Ar  3.4584542574  0.2200760777  0.1724957613
2
step 145
Ar -2.4572613768 -0.2222207410 -0.1741767497
Ar  3.4572613831  0.2222207410  0.1741767497
2
step 146
Ar -2.4560896367 -0.2243274072 -0.1758279560
Ar  3.4560896431  0.2243274073  0.1758279560
2
step 147
Ar -2.4549391318 -0.2263958948 -0.1774492378
Ar  3.4549391382  0.2263958948  0.1774492378
2
step 148
Ar -2.4538098838 -0.2284261648 -0.1790405646
Ar  3.4538098902  0.2284261648  0.1790405646
2
step 149
Ar -2.4527018384 -0.2304183145 -0.1806020127
Ar  3.4527018449  0.2304183145  0.1806020127
2
step 150
Ar -2.4516148699 -0.2323725704 -0.1821337597
Ar  3.4516148764  0.2323725704  0.1821337597
2
step 151
Ar -2.4505487852 -0.2342892793 -0.1836360773
Ar  3.4505487917  0.2342892793  0.1836360773
2
step 152
Ar -2.4495033293 -0.2361688998 -0.1851093249
Ar  3.4495033358  0.2361688998  0.1851093249
2
step 153
Ar -2.4484781903 -0.2380119926 -0.1865539421
Ar  3.4484781968  0.2380119926  0.1865539421
2
step 154
Ar -2.4474730052 -0.2398192103 -0.1879704405
Ar  3.4474730118  0.2398192103  0.1879704405
2
step 155
Ar -2.4464873654 -0.2415912878 -0.1893593959
Ar  3.4464873719  0.2415912878  0.1893593958
2
step 156
Ar -2.4455208222 -0.2433290313 -0.1907214403
Ar  3.4455208288  0.2433290313  0.1907214403
2
step 157
Ar -2.4445728930 -0.2450333090 -0.1920572541
Ar  3.4445728997  0.2450333090  0.1920572541
2
step 158
Ar -2.4436430664 -0.2467050402 -0.1933675580
Ar  3.4436430730  0.2467050402  0.1933675580
2
step 159
Ar -2.4427308074 -0.2483451865 -0.1946531057
Ar  3.4427308140  0.2483451865  0.1946531057
2
step 160
Ar -2.4418355630 -0.2499547424 -0.1959146766
Ar  3.4418355697  0.2499547424  0.1959146766
2
step 161
Ar -2.4409567665 -0.2515347266 -0.1971530692
Ar  3.4409567732  0.2515347266  0.1971530692
2
step 162
Ar -2.4400938422 -0.2530861744 -0.1983690948
Ar  3.4400938489  0.2530861744  0.1983690948
2
step 163
Ar -2.4392462092 -0.2546101299 -0.1995635721
Ar  3.4392462159  0.2546101299  0.1995635721
2
step 164
Ar -2.4384132852 -0.2561076402 -0.2007373215
Ar  3.4384132920  0.2561076402  0.2007373215
2
step 165
Ar -2.4375944899 -0.2575797486 -0.2018911610
Ar  3.4375944967  0.2575797486  0.2018911610
2
step 166
Ar -2.4367892475 -0.2590274904 -0.2030259019
Ar  3.4367892543  0.2590274904  0.2030259019
2
step 167
Ar -2.4359969894 -0.2604518876 -0.2041423453
Ar  3.4359969962  0.2604518876  0.2041423453
2
step 168
Ar -2.4352171564 -0.2618539458 -0.2052412794
Ar  3.4352171633  0.2618539458  0.2052412794
2
step 169
Ar -2.4344492004 -0.2632346505 -0.2063234765
Ar  3.4344492073  0.2632346505  0.2063234765
2
step 170
Ar -2.4336925857 -0.2645949647 -0.2073896916
Ar  3.4336925926  0.2645949647  0.2073896916
2
step 171
Ar -2.4329467903 -0.2659358269 -0.2084406602
Ar  3.4329467972  0.2659358269  0.2084406602
2
step 172
Ar -2.4322113067 -0.2672581496 -0.2094770975
Ar  3.4322113136  0.2672581496  0.2094770975
2
step 173
Ar -2.4314856426 -0.2685628178 -0.2104996972
Ar  3.4314856495  0.2685628178  0.2104996972
2
step 174
Ar -2.4307693213 -0.2698506887 -0.2115091312
Ar  3.4307693282  0.2698506887  0.2115091312
2
step 175
Ar -2.4300618818 -0.2711225910 -0.2125060490
Ar  3.4300618887  0.2711225910  0.2125060490
2
step 176
Ar -2.4293628790 -0.2723793249 -0.2134910778
Ar  3.4293628860  0.2723793249  0.2134910778
2
step 177
Ar -2.4286718837 -0.2736216622 -0.2144648225
Ar  3.4286718907  0.2736216622  0.2144648225
2
step 178
Ar -2.4279884822 -0.2748503467 -0.2154278662
Ar  3.4279884893  0.2748503467  0.2154278662
2
step 179
Ar -2.4273122761 -0.2760660947 -0.2163807702
Ar  3.4273122831  0.2760660947  0.2163807702
2
step 180
Ar -2.4266428819 -0.2772695955 -0.2173240748
Ar  3.4266428890  0.2772695956  0.2173240748
2
step 181
Ar -2.4259799306 -0.2784615126 -0.2182583002
Ar  3.4259799377  0.2784615126  0.2182583002
2
step 182
Ar -2.4253230674 -0.2796424841 -0.2191839463
Ar  3.4253230745  0.2796424841  0.2191839463
2
step 183
Ar -2.4246719506 -0.2808131240 -0.2201014946
Ar  3.4246719578  0.2808131240  0.2201014946
2
step 184
Ar -2.4240262519 -0.2819740230 -0.2210114079
Ar  3.4240262590  0.2819740230  0.2210114079
2
step 185
Ar -2.4233856549 -0.2831257494 -0.2219141318
Ar  3.4233856620  0.2831257494  0.2219141318
2
step 186
Ar -2.4227498552 -0.2842688508 -0.2228100953
Ar  3.4227498624  0.2842688508  0.2228100953
2
step 187
Ar -2.4221185597 -0.2854038541 -0.2236997116
Ar  3.4221185669  0.2854038541  0.2236997115
2
step 188
Ar -2.4214914858 -0.2865312675 -0.2245833789
Ar  3.4214914930  0.2865312675  0.2245833789
2
step 189
Ar -2.4208683608 -0.2876515811 -0.2254614813
Ar  3.4208683681  0.2876515811  0.2254614813
2
step 190
Ar -2.4202489217 -0.2887652679 -0.2263343897
Ar  3.4202489289  0.2887652680  0.2263343897
2
step 191
Ar -2.4196329142 -0.2898727851 -0.2272024623
Ar  3.4196329215  0.2898727851  0.2272024623
2
step 192
Ar -2.4190200925 -0.2909745745 -0.2280660455
Ar  3.4190200998  0.2909745745  0.2280660455
2
step 193
Ar -2.4184102185 -0.2920710643 -0.2289254749
Ar  3.4184102258  0.2920710643  0.2289254749
2
step 194
Ar -2.4178030614 -0.2931626692 -0.2297810755
Ar  3.4178030687  0.2931626692  0.2297810755
2
step 195
Ar -2.4171983974 -0.2942497920 -0.2306331630
Ar  3.4171984047  0.2942497920  0.2306331630
2
step 196
Ar -2.4165960086 -0.2953328240 -0.2314820441
Ar  3.4165960160  0.2953328240  0.2314820441
2
step 197
Ar -2.4159956834 -0.2964121460 -0.2323280173
Ar  3.4159956908  0.2964121460  0.2323280173
2
step 198
Ar -2.4153972153 -0.2974881292 -0.2331713736
Ar  3.4153972227  0.2974881292  0.2331713736
2
step 199
Ar -2.4148004027 -0.2985611359 -0.2340123969
Ar  3.4148004101  0.2985611359  0.2340123969
2
step 200
Ar -2.4142050486 -0.2996315204 -0.2348513649
Ar  3.4142050560  0.2996315204  0.2348513649
2
step 201
Ar -2.4136109600 -0.3006996296 -0.2356885496
Ar  3.4136109674  0.3006996296  0.2356885495
2
step 202
Ar -2.4130179476 -0.3017658040 -0.2365242176
Ar  3.4130179551  0.3017658040  0.2365242176
2
step 203
Ar -2.4124258253 -0.3028303780 -0.2373586314
Ar  3.4124258328  0.3028303780  0.2373586314
2
step 204
Ar -2.4118344099 -0.3038936810 -0.2381920490
Ar  3.4118344174  0.3038936811  0.2381920490
2
step 205
Ar -2.4112435207 -0.3049560382 -0.2390247252
Ar  3.4112435282  0.3049560382  0.2390247252
2
step 206
Ar -2.4106529788 -0.3060177707 -0.2398569117
Ar  3.4106529864  0.3060177707  0.2398569117
2
step 207
Ar -2.4100626074 -0.3070791969 -0.2406888582
Ar  3.4100626149  0.3070791969  0.2406888582
2
step 208
Ar -2.4094722306 -0.3081406327 -0.2415208122
Ar  3.4094722382  0.3081406327  0.2415208122
2
step 209
Ar -2.4088816736 -0.3092023925 -0.2423530202
Ar  3.4088816812  0.3092023925  0.2423530202
2
step 210
Ar -2.4082907619 -0.3102647899 -0.2431857279
Ar  3.4082907695  0.3102647899  0.2431857279
2
step 211
Ar -2.4076993213 -0.3113281383 -0.2440191810
Ar  3.4076993290  0.3113281383  0.2440191810
2
step 212
Ar -2.4071071771 -0.3123927518 -0.2448536257
Ar  3.4071071848  0.3123927518  0.2448536257
2
step 213
Ar -2.4065141537 -0.3134589460 -0.2456893094
Ar  3.4065141614  0.3134589460  0.2456893093
2
step 214
Ar -2.4059200743 -0.3145270387 -0.2465264811
Ar  3.4059200820  0.3145270387  0.2465264810
2
step 215
Ar -2.4053247603 -0.3155973510 -0.2473653925
Ar  3.4053247680  0.3155973510  0.2473653925
2
step 216
Ar -2.4047280308 -0.3166702083 -0.2482062987
Ar  3.4047280385  0.3166702083  0.2482062987
2
step 217
Ar -2.4041297020 -0.3177459410 -0.2490494587
Ar  3.4041297097  0.3177459410  0.2490494587
2
step 218
Ar -2.4035295865 -0.3188248860 -0.2498951363
Ar  3.4035295943  0.3188248860  0.2498951363
2
step 219
Ar -2.4029274929 -0.3199073874 -0.2507436016
Ar  3.4029275007  0.3199073874  0.2507436016
2
step 220
Ar -2.4023232246 -0.3209937986 -0.2515951314
Ar  3.4023232325  0.3209937986  0.2515951313
2
step 221
Ar -2.4017165796 -0.3220844830 -0.2524500104
Ar  3.4017165875  0.3220844830  0.2524500104
2
step 222
Ar -2.4011073490 -0.3231798160 -0.2533085331
Ar  3.4011073569  0.3231798160  0.2533085331
2
step 223
Ar -2.4004953164 -0.3242801868 -0.2541710044
Ar  3.4004953242  0.3242801868  0.2541710043
2
step 224
Ar -2.3998802564 -0.3253860003 -0.2550377416
Ar  3.3998802643  0.3253860003  0.2550377416
2
step 225
Ar -2.3992619340 -0.3264976794 -0.2559090764
Ar  3.3992619419  0.3264976794  0.2559090764
2
step 226
Ar -2.3986401024 -0.3276156677 -0.2567853563
Ar  3.3986401103  0.3276156677  0.2567853563
2
step 227
Ar -2.3980145019 -0.3287404321 -0.2576669473
Ar  3.3980145098  0.3287404321  0.2576669473
2
step 228
Ar -2.3973848579 -0.3298724663 -0.2585542364
Ar  3.3973848658  0.3298724663  0.2585542364
2
step 229
Ar -2.3967508789 -0.3310122943 -0.2594476343
Ar  3.3967508868  0.3310122943  0.2594476342
2
step 230
Ar -2.3961122541 -0.3321604748 -0.2603475789
Ar  3.3961122621  0.3321604749  0.2603475789
2
step 231
Ar -2.3954686509 -0.3333176062 -0.2612545391
Ar  3.3954686590  0.3333176062  0.2612545391
2
step 232
Ar -2.3948197116 -0.3344843313 -0.2621690189
Ar  3.3948197197  0.3344843313  0.2621690189
2
step 233
Ar -2.3941650500 -0.3356613445 -0.2630915626
Ar  3.3941650580  0.3356613445  0.2630915626
2
step 234
Ar -2.3935042474 -0.3368493985 -0.2640227600
Ar  3.3935042555  0.3368493985  0.2640227600
2
step 235
Ar -2.3928368485 -0.3380493121 -0.2649632530
Ar  3.3928368566  0.3380493121  0.2649632530
2
step 236
Ar -2.3921623554 -0.3392619802 -0.2659137430
Ar  3.3921623636  0.3392619802  0.2659137430
2
step 237
Ar -2.3914802227 -0.3404883835 -0.2668749987
Ar  3.3914802309  0.3404883835  0.2668749986
2
step 238
Ar -2.3907898503 -0.3417296009 -0.2678478656
Ar  3.3907898585  0.3417296009  0.2678478656
2
step 239
Ar -2.3900905763 -0.3429868225 -0.2688332767
Ar  3.3900905846  0.3429868225  0.2688332767
2
step 240
Ar -2.3893816687 -0.3442613644 -0.2698322634
Ar  3.3893816769  0.3442613644  0.2698322634
2
step 241
Ar -2.3886623162 -0.3455546851 -0.2708459689
Ar  3.3886623245  0.3455546851  0.2708459689
2
step 242
Ar -2.3879316185 -0.3468684032 -0.2718756619
Ar  3.3879316268  0.3468684032  0.2718756619
2
step 243
Ar -2.3871885757 -0.3482043165 -0.2729227516
Ar  3.3871885840  0.3482043166  0.2729227516
2
step 244
Ar -2.3864320770 -0.3495644223 -0.2739888033
Ar  3.3864320853  0.3495644223  0.2739888033
2
step 245
Ar -2.3856608893 -0.3509509371 -0.2750755544
Ar  3.3856608977  0.3509509371  0.2750755544
2
step 246
Ar -2.3848736466 -0.3523663173 -0.2761849302
Ar  3.3848736551  0.3523663173  0.2761849302
2
step 247
Ar -2.3840688392 -0.3538132770 -0.2773190581
Ar  3.3840688477  0.3538132770  0.2773190581
2
step 248
Ar -2.3832448056 -0.3552948033 -0.2784802794
Ar  3.3832448141  0.3552948033  0.2784802794
2
step 249
Ar -2.3823997269 -0.3568141665 -0.2796711571
Ar  3.3823997354  0.3568141665  0.2796711571
2
step 250
Ar -2.3815316257 -0.3583749219 -0.2808944781
Ar  3.3815316342  0.3583749219  0.2808944781
2
step 251
Ar -2.3806383700 -0.3599809023 -0.2821532465
Ar  3.3806383786  0.3599809023  0.2821532465
2
step 252
Ar -2.3797176857 -0.3616361966 -0.2834506672
Ar  3.3797176943  0.3616361966  0.2834506672
2
step 253
Ar -2.3787671771 -0.3633451117 -0.2847901159
Ar  3.3787671858  0.3633451117  0.2847901159
2
step 254
Ar -2.3777843592 -0.3651121157 -0.2861750947
Ar  3.3777843679  0.3651121157  0.2861750947
2
step 255
Ar -2.3767667005 -0.3669417596 -0.2876091707
Ar  3.3767667093  0.3669417596  0.2876091706
2
step 256
Ar -2.3757116793 -0.3688385775 -0.2890958977
Ar  3.3757116881  0.3688385776  0.2890958977
2
step 257
Ar -2.3746168499 -0.3708069665 -0.2906387222
Ar  3.3746168587  0.3708069666  0.2906387222
2
step 258
Ar -2.3734799191 -0.3728510493 -0.2922408755
Ar  3.3734799280  0.3728510493  0.2922408755
2
step 259
Ar -2.3722988289 -0.3749745262 -0.2939052580
Ar  3.3722988378  0.3749745262  0.2939052579
2
step 260
Ar -2.3710718394 -0.3771805251 -0.2956343212
Ar  3.3710718484  0.3771805251  0.2956343212
2
step 261
Ar -2.3697976094 -0.3794714577 -0.2974299555
Ar  3.3697976184  0.3794714577  0.2974299555
2
step 262
Ar -2.3684752653 -0.3818488943 -0.2992933917
Ar  3.3684752743  0.3818488943  0.2992933917
2
step 263
Ar -2.3671044568 -0.3843134647 -0.3012251235
Ar  3.3671044659  0.3843134647  0.3012251235
2
step 264
Ar -2.3656853924 -0.3868647943 -0.3032248572
Ar  3.3656854016  0.3868647943  0.3032248572
2
step 265
Ar -2.3642188535 -0.3895014781 -0.3052914916
Ar  3.3642188627  0.3895014782  0.3052914916
2
step 266
Ar -2.3627061871 -0.3922210942 -0.3074231283
Ar  3.3627061964  0.3922210942  0.3074231283
2
step 267
Ar -2.3611492782 -0.3950202538 -0.3096171112
Ar  3.3611492876  0.3950202538  0.3096171112
2
step 268
Ar -2.3595505044 -0.3978946821 -0.3118700899
Ar  3.3595505139  0.3978946822  0.3118700899
2
step 269
Ar -2.3579126780 -0.4008393231 -0.3141781012
Ar  3.3579126875  0.4008393231  0.3141781012
2
step 270
Ar -2.3562389789 -0.4038484592 -0.3165366639
Ar  3.3562389885  0.4038484592  0.3165366639
2
step 271
Ar -2.3545328839 -0.4069158398 -0.3189408786
Ar  3.3545328936  0.4069158398  0.3189408786
2
step 272
Ar -2.3527980947 -0.4100348096 -0.3213855290
Ar  3.3527981044  0.4100348096  0.3213855290
2
step 273
Ar -2.3510384687 -0.4131984333 -0.3238651792
Ar  3.3510384785  0.4131984334  0.3238651792
2
step 274
Ar -2.3492579547 -0.4163996117 -0.3263742648
Ar  3.3492579645  0.4163996117  0.3263742648
2
step 275
Ar -2.3474605338 -0.4196311867 -0.3289071751
Ar  3.3474605438  0.4196311867  0.3289071751
2
step 276
Ar -2.3456501684 -0.4228860347 -0.3314583270
Ar  3.3456501784  0.4228860347  0.3314583270
2
step 277
Ar -2.3438307559 -0.4261571482 -0.3340222277
Ar  3.3438307660  0.4261571483  0.3340222277
2
step 278
Ar -2.3420060910 -0.4294377052 -0.3365935303
Ar  3.3420061011  0.4294377053  0.3365935303
2
step 279
Ar -2.3401798322 -0.4327211278 -0.3391670788
Ar  3.3401798424  0.4327211278  0.3391670788
2
step 280
Ar -2.3383554752 -0.4360011312 -0.3417379475
Ar  3.3383554855  0.4360011312  0.3417379474
2
step 281
Ar -2.3365363300 -0.4392717642 -0.3443014716
Ar  3.3365363404  0.4392717642  0.3443014716
2
step 282
Ar -2.3347255033 -0.4425274415 -0.3468532734
Ar  3.3347255138  0.4425274415  0.3468532733
2
step 283
Ar -2.3329258840 -0.4457629691 -0.3493892818
Ar  3.3329258945  0.4457629691  0.3493892818
2
step 284
Ar -2.3311401325 -0.4489735638 -0.3519057479
Ar  3.3311401431  0.4489735638  0.3519057479
2
step 285
Ar -2.3293706732 -0.4521548669 -0.3543992551
Ar  3.3293706839  0.4521548669  0.3543992551
2
step 286
Ar -2.3276196898 -0.4553029522 -0.3568667263
Ar  3.3276197005  0.4553029522  0.3568667263
2
step 287
Ar -2.3258891234 -0.4584143298 -0.3593054259
Ar  3.3258891342  0.4584143298  0.3593054259
2
step 288
Ar -2.3241806733 -0.4614859446 -0.3617129595
Ar  3.3241806842  0.4614859447  0.3617129595
2
step 289
Ar -2.3224958001 -0.4645151707 -0.3640872686
Ar  3.3224958111  0.4645151707  0.3640872686
2
step 290
Ar -2.3208357312 -0.4674998011 -0.3664266238
Ar  3.3208357423  0.4674998012  0.3664266238
2
step 291
Ar -2.3192014685 -0.4704380348 -0.3687296131
Ar  3.3192014796  0.4704380348  0.3687296131
2
step 292
Ar -2.3175937981 -0.4733284584 -0.3709951288
Ar  3.3175938093  0.4733284584  0.3709951288
2
step 293
Ar -2.3160133016 -0.4761700260 -0.3732223512
Ar  3.3160133128  0.4761700260  0.3732223512
2
step 294
Ar -2.3144603694 -0.4789620359 -0.3754107303
Ar  3.3144603807  0.4789620360  0.3754107303
2
step 295
Ar -2.3129352147 -0.4817041049 -0.3775599656
Ar  3.3129352260  0.4817041049  0.3775599656
2
step 296
Ar -2.3114378886 -0.4843961407 -0.3796699849
Ar  3.3114379001  0.4843961407  0.3796699849
2
step 297
Ar -2.3099682966 -0.4870383138 -0.3817409217
Ar  3.3099683081  0.4870383138  0.3817409217
2
step 298