12
step 0
 C  1.3868353850  0.0000000000 -0.0000000000
 C  0.6934069366  1.2009964011  0.0000000000
 C -0.6934069366  1.2009964011  0.0000000000
 C -1.3868353850 -0.0000000000 -0.0000000000
 C -0.6934069366 -1.2009964011 -0.0000000000
 C  0.6934069366 -1.2009964011  0.0000000000
 H  2.4694773417 -0.0000000000 -0.0000000000
 H  1.2346489211  2.1386345090 -0.0000000000
 H -1.2346489211  2.1386345090  0.0000000000
 H -2.4694773417 -0.0000000000 -0.0000000000
 H -1.2346489211 -2.1386345090 -0.0000000000
 H  1.2346489211 -2.1386345090  0.0000000000
12
step 1
 C  1.3878729657  0.0018661353  0.0015376800
 C  0.6918140630  1.2075918181  0.0052444939
 C -0.6920128700  1.2028848907  0.0006361834
 C -1.3847979954 -0.0008582481  0.0024629287
 C -0.6966906484 -1.1972068662 -0.0007547303
 C  0.6903151938 -1.1971073502 -0.0004868912
 H  2.4718837570 -0.0031133477 -0.0024358716
 H  1.2402539766  2.1358252228 -0.0003682495
 H -1.2448753809  2.1439376023  0.0007223118
 H -2.4677674390 -0.0124670951 -0.0027922039
 H -1.2315073601 -2.1392553165 -0.0066265468
 H  1.2355117377 -2.1420974455  0.0028608955
12
step 2
 C  1.3888705605  0.0037234522  0.0030671282
 C  0.6902594138  1.2140603936  0.0104396436
 C -0.6906928236  1.2048400073  0.0012816961
 C -1.3828168301 -0.0016872303  0.0048977377
 C -0.6999202300 -1.1934953563 -0.0015044225
 C  0.6873263942 -1.1932935186 -0.0009642748
 H  2.4741077810 -0.0061291243 -0.0048185235
 H  1.2459065382  2.1335738581 -0.0006808044
 H -1.2544829281  2.1484110596  0.0014267936
 H -2.4660246830 -0.0245969482 -0.0055322895
 H -1.2284580695 -2.1397277713 -0.0131706323
 H  1.2358917743 -2.1447521868  0.0056389114
12
step 3
 C  1.3897956946  0.0055733376  0.0045897743
 C  0.6887711519  1.2203252547  0.0155695714
 C -0.6895054270  1.2069270588  0.0019493140
 C -1.3809355269 -0.0024610739  0.0072921756
 C -0.7030609660 -1.1899160938 -0.0022489430
 C  0.6845157524 -1.1895952880 -0.0014255595
 H  2.4760012216 -0.0089712915 -0.0071095122
 H  1.2516660171  2.1323533160 -0.0008894126
 H -1.2629905783  2.1514033038  0.0021010355
 H -2.4642101267 -0.0361357682 -0.0081850070
 H -1.2255736151 -2.1399186438 -0.0195913953
 H  1.2353912599 -2.1459464629  0.0082676128
12
step 4
 C  1.3906167199  0.0074158609  0.0061071351
 C  0.6873783701  1.2263234486  0.0206191741
 C -0.6884982511  1.2091923632  0.0026512182
 C -1.3791958267 -0.0031519494  0.0096346158
 C -0.7060769447 -1.1865208910 -0.0029883058
 C  0.6819457898 -1.1860378088 -0.0018642684
 H  2.4774443460 -0.0115675546 -0.0092707762
 H  1.2575389917  2.1325119097 -0.0009497853
 H -1.2700331242  2.1524659646  0.0027337353
 H -2.4622973726 -0.0468407902 -0.0107154189
 H -1.2229296997 -2.1397170397 -0.0258492789
 H  1.2337284712 -2.1452197463  0.0106815307
12
step 5
 C  1.3913028015  0.0092501894  0.0076208240
 C  0.6861119198  1.2320093822  0.0255740716
 C -0.6877049260  1.2116596692  0.0033989305
 C -1.3776356169 -0.0037304782  0.0119141600
 C -0.7089313495 -1.1833568485 -0.0037226141
 C  0.6796633458 -1.1826284800 -0.0022743119
 H  2.4783556148 -0.0138509493 -0.0112653246
 H  1.2634575180  2.1342363706 -0.0008194852
 H -1.2753886755  2.1513892183  0.0033150659
 H -2.4602819710 -0.0564854976 -0.0130896305
 H -1.2206069412 -2.1390455378 -0.0319068594
 H  1.2307599793 -2.1423387366  0.0128189287
12
step 6
 C  1.3918241490  0.0110752060  0.0091325548
 C  0.6850043655  1.2373560558  0.0304205039
 C -0.6871433882  1.2143286591  0.0042032706
 C -1.3762872710 -0.0041664107  0.0141207140
 C -0.7115871140 -1.1804643046 -0.0044519795
 C  0.6776978839 -1.1793562830 -0.0026502371
 H  2.4786972746 -0.0157613441 -0.0130579278
 H  1.2692703606  2.1375381080 -0.0004557719
 H -1.2789932524  2.1482152770  0.0038369377
 H -2.4581880761 -0.0648645304 -0.0152756048
 H -1.2186909890 -2.1378679089 -0.0377296904
 H  1.2264903810 -2.1373119407  0.0146243047
12
step 7
 C  1.3921525344  0.0128902725  0.0106441402
 C  0.6840888336  1.2423539844  0.0351452614
 C -0.6868151379  1.2171751913  0.0050743309
 C -1.3751764072 -0.0044295200  0.0162450383
 C -0.7140079285 -1.1778751726 -0.0051764309
 C  0.6760609525 -1.1761926727 -0.0029874368
 H  2.4784764262 -0.0172467560 -0.0146157476
 H  1.2747499549  2.1422646904  0.0001858013
 H -1.2809441046  2.1432340787  0.0042931319
 H -2.4560713783 -0.0717980591 -0.0172439641
 H -1.2172707542 -2.1361925310 -0.0432870600
 H  1.2210713105 -2.1303866179  0.0160503799
12
step 8
 C  1.3922621024  0.0146960691  0.0121574881
 C  0.6833968527  1.2470081780  0.0397357092
 C -0.6867055327  1.2201532008  0.0060214666
 C -1.3743211497 -0.0044906464  0.0182787806
 C -0.7161595640 -1.1756117721 -0.0058958286
 C  0.6747467838 -1.1730939356 -0.0032822998
 H  2.4777415696 -0.0182644030 -0.0159088520
 H  1.2796139978  2.1481329559  0.0011514989
 H -1.2814917287  2.1369621202  0.0046792953
 H -2.4540177901 -0.0771354266 -0.0189686829
 H -1.2164347585 -2.1340710623 -0.0485525542
 H  1.2147900462 -2.1220287055  0.0170593789
12
step 9
 C  1.3921304407  0.0164954340  0.0136745989
 C  0.6829555787  1.2513339021  0.0441799266
 C -0.6867853199  1.2231984193  0.0070532993
 C -1.3737319372 -0.0043228260  0.0202144880
 C -0.7180114435 -1.1736862225 -0.0066097939
 C  0.6737341259 -1.1700051458 -0.0035322882
 H  2.4765750209 -0.0187814160 -0.0169105713
 H  1.2835571427  2.1547760786  0.0024881187
 H -1.2810186349  2.1301022886  0.0049928146
 H -2.4521378295 -0.0807578814 -0.0204275811
 H -1.2162658025 -2.1315923608 -0.0535043418
 H  1.2080465662 -2.1128836406  0.0176234058
12
step 10
 C  1.3917398362  0.0182941389  0.0151975615
 C  0.6827849551  1.2553520262  0.0484669503
 C -0.6870137076  1.2262341781  0.0081777195
 C -1.3734118730 -0.0039024082  0.0220456057
 C -0.7195383437 -1.1721004365 -0.0073176679
 C  0.6729894202 -1.1668659488 -0.0037359244
 H  2.4750819851 -0.0187751639 -0.0175976785
 H  1.2862865864  2.1617955340  0.0042406155
 H -1.2800019271  2.1234811015  0.0052326367
 H -2.4505571156 -0.0825802864 -0.0216025629
 H -1.2168343425 -2.1288721317 -0.0581251249
 H  1.2013174263 -2.1037149146  0.0177237526
12
step 11
 C  1.3910786065  0.0201015496  0.0167285481
 C  0.6828953233  1.2590846481  0.0525870732
 C -0.6873431669  1.2291793850  0.0094018739
 C -1.3733575598 -0.0032100633  0.0237664598
 C -0.7207220704 -1.1708466969 -0.0080185029
 C  0.6724713082 -1.1636182299 -0.0038926891
 H  2.4733774365 -0.0182331883 -0.0179503955
 H  1.2875556179  2.1688100847  0.0064491889
 H -1.2789579455  2.1179615758  0.0053991711
 H -2.4494038769 -0.0825517804 -0.0224795828
 H -1.2181911557 -2.1260393352 -0.0624017403
 H  1.1951061615 -2.0953192421  0.0173491250
12
step 12
 C  1.3901423601  0.0219312196  0.0182698097
 C  0.6832860420  1.2625513906  0.0565324676
 C -0.6877263364  1.2319579868  0.0107319667
 C -1.3735602259 -0.0022312540  0.0253723834
 C -0.7215525015 -1.1699088991 -0.0087112045
 C  0.6721356630 -1.1602154914 -0.0040029177
 H  2.4715736285 -0.0171526962 -0.0179525797
 H  1.2871922366  2.1754980403  0.0091460819
 H -1.2783711149  2.1143355057  0.0054942721
 H -2.4487941181 -0.0806551133 -0.0230487138
 H -1.2203596051 -2.1232199732 -0.0663249646
 H  1.1898830062 -2.0884219127  0.0164929296
12
step 13
 C  1.3889350240  0.0238009159  0.0198236360
 C  0.6839443144  1.2657668153  0.0602966673
 C -0.6881217446  1.2345096927  0.0121734966
 C -1.3740073296 -0.0009574571  0.0268592969
 C -0.7220296572 -1.1692636285 -0.0093943245
 C  0.6719424302 -1.1566315130 -0.0040674532
 H  2.4697640677 -0.0155400710 -0.0175907023
 H  1.2851144450  2.1816234742  0.0123541040
 H -1.2786177645  2.1132113919  0.0055223765
 H -2.4488191678 -0.0769064009 -0.0233027925
 H -1.2233303536 -2.1205243379 -0.0698873036
 H  1.1860240134 -2.0835716884  0.0151509507
12
step 14
 C  1.3874694898  0.0257326213  0.0213923277
 C  0.6848455215  1.2687387153  0.0638750942
 C -0.6885007087  1.2367984205  0.0137309099
 C -1.3746838807  0.0006139387  0.0282238425
 C -0.7221638467 -1.1688818800 -0.0100662475
 C  0.6718600189 -1.1528682726 -0.0040875967
 H  2.4680148804 -0.0134098788 -0.0168540363
 H  1.2813413692  2.1870561896  0.0160846168
 H -1.2798987287  2.1149169063  0.0054915141
 H -2.4495325867 -0.0713533107 -0.0232373592
 H -1.2270561667 -2.1180332025 -0.0730826283
 H  1.1837589064 -2.0810480655  0.0133195676
12
step 15
 C  1.3857677032  0.0277519730  0.0229781709
 C  0.6859539947  1.2714675304  0.0672651664
 C -0.6888512100  1.2388173396  0.0154073897
 C -1.3755736831  0.0024796874  0.0294633665
 C -0.7219757173 -1.1687305474 -0.0107252704
 C  0.6718683160 -1.1489597459 -0.0040651179
 H  2.4663587968 -0.0107839291 -0.0157345716
 H  1.2759937035  2.1917786495  0.0203370097
 H -1.2822001157  2.1194434188  0.0054147404
 H -2.4509413902 -0.0640733217 -0.0228503415
 H -1.2314499150 -2.1157892568 -0.0759056202
 H  1.1831424902 -2.0808103387  0.0109955420
12
step 16
 C  1.3838601242  0.0298874857  0.0245834221
 C  0.6872245815  1.2739467036  0.0704663049
 C -0.6891785030  1.2405887000  0.0172046699
 C -1.3766602618  0.0046313031  0.0305759112
 C -0.7214954484 -1.1687738155 -0.0113696773
 C  0.6719589002 -1.1449707031 -0.0040024157
 H  2.4647939650 -0.0076903122 -0.0142269907
 H  1.2692854984  2.1958817135  0.0250993826
 H -1.2852940437  2.1264484706  0.0053114463
 H -2.4530022468 -0.0551718794 -0.0221418641
 H -1.2363859092 -2.1137940639 -0.0783515381
 H  1.1840567410 -2.0825021542  0.0081775639
12
step 17
 C  1.3817845707  0.0321694835  0.0262102710
 C  0.6886047734  1.2761640278  0.0734797073
 C -0.6895023522  1.2421586183  0.0191229526
 C -1.3779273585  0.0070560562  0.0315601550
 C -0.7207612338 -1.1689742109 -0.0119977408
 C  0.6721326607 -1.1409905804 -0.0039027349
 H  2.4632877478 -0.0041623223 -0.0123286694
 H  1.2615080747  2.1995490833  0.0303501272
 H -1.2887791444  2.1353153770  0.0052083220
 H -2.4556232627 -0.0447807172 -0.0211140423
 H -1.2417046512 -2.1120110131 -0.0804158307
 H  1.1862421791 -2.0855106447  0.0048696986
12
step 18
 C  1.3795844929  0.0346285231  0.0278608078
 C  0.6900371590  1.2781040835  0.0763080948
 C -0.6898517320  1.2435884910  0.0211609139
 C -1.3793589611  0.0097379906  0.0324154083
 C -0.7198173880 -1.1692931828 -0.0126076979
 C  0.6723959008 -1.1371236984 -0.0037703748
 H  2.4617847977 -0.0002373381 -0.0100398823
 H  1.2530068027  2.2030307084  0.0360601988
 H -1.2921486383  2.1452523008  0.0051392711
 H -2.4586713038 -0.0330561138 -0.0197711633
 H -1.2472208234 -2.1103736407 -0.0820943391
 H  1.1893488861 -2.0890636569  0.0010851024
12
step 19
 C  1.3773068889  0.0372937128  0.0295369833
 C  0.6914624098  1.2797515132  0.0789554599
 C -0.6902593387  1.2449448748  0.0233157619
 C -1.3809388407  0.0126593589  0.0331416354
 C -0.7187116308 -1.1696913649 -0.0131976383
 C  0.6727553162 -1.1334785342 -0.0036107895
 H  2.4602200519  0.0040447482 -0.0073643287
 H  1.2441540894  2.2066079101  0.0421952767
 H -1.2948672936  2.1554050731  0.0051443731
 H -2.4619828373 -0.0201768761 -0.0181201918
 H -1.2527329505 -2.1087967054 -0.0833837430
 H  1.1929936949 -2.0923396977 -0.0031508494
12
step 20
 C  1.3749997641  0.0401904166  0.0312406511
 C  0.6928222067  1.2810951126  0.0814269519
 C -0.6907547398  1.2462907689  0.0255834785
 C -1.3826501475  0.0158010827  0.0337396321
 C -0.7174934866 -1.1701286852 -0.0137656403
 C  0.6732152271 -1.1301559713 -0.0034305896
 H  2.4585274943  0.0086419897 -0.0043090522
 H  1.2353133211  2.2105465386  0.0487198351
 H -1.2964437548  2.1649633865  0.0052672990
 H -2.4653815036 -0.0063412472 -0.0161715325
 H -1.2580374944 -2.1071926693 -0.0842835382
 H  1.1968140181 -2.0945746068 -0.0078011758
12
step 21
 C  1.3727098116  0.0433385708  0.0329735335
 C  0.6940624562  1.2821317900  0.0837286344
 C -0.6913607106  1.2476780283  0.0279590284
 C -1.3844746121  0.0191441126  0.0342110473
 C -0.7162114005 -1.1705644048 -0.0143096467
 C  0.6737740418 -1.1272408783 -0.0032373307
 H  2.4566540735  0.0135119780 -0.0008847521
 H  1.2268090603  2.2150527164  0.0555990546
 H -1.2964851080  2.1732440293  0.0055530358
 H -2.4686936436  0.0082364456 -0.0139395790
 H -1.2629407099 -2.1054850345 -0.0847968174
 H  1.2005093212 -2.0951434800 -0.0128179774
12
step 22
 C  1.3704802537  0.0467509981  0.0347371881
 C  0.6951359483  1.2828700581  0.0858673699
 C -0.6920905108  1.2491422477  0.0304365835
 C -1.3863918775  0.0226702672  0.0345584457
 C -0.7149104849 -1.1709572009 -0.0148274295
 C  0.6744224024 -1.1247955416 -0.0030391940
 H  2.4545701748  0.0186130827  0.0028941857
 H  1.2189008677  2.2202325518  0.0628001002
 H -1.2947336854  2.1797492919  0.0060453533
 H -2.4717641876  0.0233299011 -0.0114431933
 H -1.2672703995 -2.1036207504 -0.0849312863
 H  1.2038699749 -2.0936186501 -0.0181450883
12
step 23
 C  1.3683491014  0.0504320286  0.0365329544
 C  0.6960042044  1.2833323031  0.0878507983
 C -0.6929464895  1.2506997374  0.0330097252
 C -1.3883790090  0.0263628012  0.0347853515
 C -0.7136306522 -1.1712653945 -0.0153165738
 C  0.6751423433 -1.1228554120 -0.0028445872
 H  2.4522770412  0.0239055959  0.0070098283
 H  1.2117665694  2.2260649945  0.0702920065
 H -1.2910873886  2.1842023738  0.0067844689
 H -2.4744701967  0.0387054998 -0.0087059475
 H -1.2708857221 -2.1015792951 -0.0846999973
 H  1.2067942495 -2.0898038796 -0.0237217175
12
step 24
 C  1.3663479546  0.0543765556  0.0383618852
 C  0.6966383065  1.2835552879  0.0896874053
 C -0.6939197328  1.2523462829  0.0356716126
 C -1.3904102917  0.0302066834  0.0348962665
 C -0.7124052385 -1.1714473984 -0.0157744926
 C  0.6759072707 -1.1214269770 -0.0026617098
 H  2.4498102720  0.0293527163  0.0114410135
 H  1.2054974506  2.2323939108  0.0780442774
 H -1.2856066286  2.1865638262  0.0078050577
 H -2.4767307799  0.0541273282 -0.0057560670
 H -1.2736842552 -2.0993775003 -0.0841217058
 H  1.2092953171 -2.0837479298 -0.0294865995
12
step 25
 C  1.3645014096  0.0585696264  0.0402246702
 C  0.6970187175  1.2835886882  0.0913866453
 C -0.6949905678  1.2540574695  0.0384151152
 C -1.3924573900  0.0341885905  0.0348966616
 C -0.7112601797 -1.1714624195 -0.0161984751
 C  0.6766826398 -1.1204876391 -0.0024981211
 H  2.4472389717  0.0349213292  0.0161638272
 H  1.2001053656  2.2389416368  0.0860246934
 H -1.2785101061  2.1870317834  0.0091347356
 H -2.4785125429  0.0693623542 -0.0026260570
 H -1.2756057753 -2.0970696487 -0.0832207977
 H  1.2114993729 -2.0757395599 -0.0353821990
12
step 26
 C  1.3628270745  0.0629866161  0.0421215645
 C  0.6971343112  1.2834918691  0.0929590649
 C -0.6961298870  1.2557905806  0.0412329037
 C -1.3944899063  0.0382966375  0.0347929412
 C -0.7102137692 -1.1712714176 -0.0165857728
 C  0.6774273552 -1.1199876468 -0.0023603567
 H  2.4446605505  0.0405825606  0.0211522062
 H  1.1955392842  2.2453415830  0.0941970666
 H -1.2701598515  2.1860259513  0.0107931777
 H -2.4798301898  0.0841855316  0.0006479678
 H -1.2766324927 -2.0947427907 -0.0820267851
 H  1.2136345242 -2.0662836190 -0.0413584649
12
step 27
 C  1.3613361341  0.0675939899  0.0440523348
 C  0.6969809593  1.2833294405  0.0944163693
 C -0.6973014059  1.2574882945  0.0441174962
 C -1.3964763383  0.0425198741  0.0345923757
 C -0.7092769938 -1.1708382791 -0.0169337184
 C  0.6780960491 -1.1198542635 -0.0022536479
 H  2.4421916119  0.0463120878  0.0263786217
 H  1.1917072638  2.2511836367  0.1025196850
 H -1.2610342854  2.1841525265  0.0127921063
 H -2.4807423270  0.0983845929  0.0040271980
 H -1.2767857894 -2.0925076601 -0.0805734101
 H  1.2160087631 -2.0560559234 -0.0473754941
12
step 28
 C  1.3600343539  0.0723505997  0.0460162313
 C  0.6965600285  1.2831662863  0.0957713876
 C -0.6984650151  1.2590844790  0.0470612428
 C -1.3983853838  0.0468476059  0.0343030045
 C -0.7084543902 -1.1701311355 -0.0172398688
 C  0.6786424161 -1.1199983272 -0.0021818176
 H  2.4399558511  0.0520902057  0.0318147805
 H  1.1884996596  2.2560644083  0.1109449384
 H -1.2516875726  2.1821459964  0.0151364199
 H -2.4813429207  0.1117642723  0.0074712066
 H -1.2761198282 -2.0904859862 -0.0788974412
 H  1.2189750055 -2.0458346936 -0.0534042749
12
step 29
 C  1.3589233625  0.0772093952  0.0480119887
 C  0.6958770574  1.2830627316  0.0970379232
 C -0.6995812589  1.2605121875  0.0500562354
 C -1.4001874952  0.0512685984  0.0339335093
 C -0.7077453149 -1.1691237136 -0.0175021586
 C  0.6790236476 -1.1203230221 -0.0021474199
 H  2.4380703429  0.0579016587  0.0374322637
 H  1.1858102442  2.2596348960  0.1194202548
 H -1.2426950953  2.1807857685  0.0178266186
 H -2.4817492494  0.1241497287  0.0109390770
 H -1.2747127483 -2.0887954210 -0.0770372830
 H  1.2228826924 -2.0364097921 -0.0594246669
12
step 30
 C  1.3580020175  0.0821193751  0.0500378510
 C  0.6949407475  1.2830703605  0.0982304974
 C -0.7006166218  1.2617134201  0.0530941515
 C -1.4018565451  0.0557702279  0.0334930664
 C -0.7071454691 -1.1677965840 -0.0177190465
 C  0.6792056761 -1.1207340457 -0.0021521612
 H  2.4366319318  0.0637352580  0.0432030253
 H  1.1835531981  2.2616400964  0.1278901720
 H -1.2345888004  2.1807917757  0.0208623559
 H -2.4820875846  0.1353890225  0.0143904657
 H -1.2726565188 -2.0875337078 -0.0750315549
 H  1.2280192765 -2.0284780938 -0.0654201849
12
step 31
 C  1.3572676464  0.0870275788  0.0520916119
 C  0.6937622890  1.2832288096  0.0993640122
 C -0.7015488364  1.2626493857  0.0561660734
 C -1.4033714333  0.0603376516  0.0329911875
 C -0.7066484745 -1.1661381609 -0.0178896388
 C  0.6791684720 -1.1211495981 -0.0021975501
 H  2.4357055544  0.0695833001  0.0490996894
 H  1.1816750901  2.2619473667  0.1362991709
 H -1.2277915674  2.1827127667  0.0242464399
 H -2.4824781514  0.1453546278  0.0177864923
 H -1.2700467991 -2.0867640198 -0.0729178082
 H  1.2345502699 -2.0225419531 -0.0713701153
12
step 32
 C  1.3567169786  0.0918809381  0.0541706607
 C  0.6923549676  1.2835637097  0.1004533704
 C -0.7023710565  1.2633092376  0.0592623697
 C -1.4047174548  0.0649530830  0.0324375599
 C -0.7062472774 -1.1641453150 -0.0180137756
 C  0.6789102386 -1.1215081507 -0.0022856265
 H  2.4353161530  0.0754408108  0.0550956297
 H  1.1801616809  2.2605621431  0.1445948267
 H -1.2225640766  2.1868300073  0.0279881456
 H -2.4830210970  0.1539441180  0.0210903890
 H -1.2669742299 -2.0865034552 -0.0707315316
 H  1.2424710179 -2.0188332925 -0.0772407488
12
step 33
 C  1.3563466413  0.0966278583  0.0562720272
 C  0.6907339813  1.2840858607  0.1015130974
 C -0.7030937466  1.2637150643  0.0623727322
 C -1.4058872646  0.0695952610  0.0318418977
 C -0.7059351777 -1.1618234868 -0.0180920723
 C  0.6784493227 -1.1217721925 -0.0024195417
 H  2.4354453698  0.0813046495  0.0611648613
 H  1.1790396241  2.2576305997  0.1527308290
 H -1.2189775899  2.1931015323  0.0321046155
 H -2.4837851526  0.1610802772  0.0242678912
 H -1.2635183878 -2.0867164183 -0.0685055448
 H  1.2515836558 -2.0172833345 -0.0829784046
12
step 34
 C  1.3561531788  0.1012194720  0.0583924233
 C  0.6889164218  1.2847916807  0.1025570128
 C -0.7037436752  1.2639216570  0.0654864282
 C -1.4068813078  0.0742391901  0.0312138092
 C -0.7057063510 -1.1591862331 -0.0181259133
 C  0.6778231381 -1.1219271990 -0.0026037814
 H  2.4360335045  0.0871725163  0.0672818239
 H  1.1783730582  2.2534291695  0.1606694335
 H -1.2169199737  2.2011637033  0.0366196524
 H -2.4848003855  0.1667109255  0.0272874030
 H -1.2597451771 -2.0873140131 -0.0662698067
 H  1.2615070931 -2.0175462412 -0.0885067415
12
step 35
 C  1.3561326420  0.1056105697  0.0605282847
 C  0.6869214189  1.2856649380  0.1035979969
 C -0.7043602538  1.2640110461  0.0685927471
 C -1.4077076415  0.0788561981  0.0305626854
 C -0.7055558303 -1.1562542000 -0.0181174041
 C  0.6770842360 -1.1219764780 -0.0028439404
 H  2.4369864288  0.0930419180  0.0734211566
 H  1.1782549536  2.2483410221  0.1683829217
 H -1.2161324098  2.2103899986  0.0415601520
 H -2.4860559169  0.1708086798  0.0301200143
 H -1.2557078020 -2.0881597384 -0.0640515874
 H  1.2717183016 -2.0190689114 -0.0937294929
12
step 36
 C  1.3562798723  0.1097602519  0.0626758117
 C  0.6847704749  1.2866797071  0.1046478928
 C -0.7049902069  1.2640832645  0.0716815501
 C -1.4083811468  0.0834143105  0.0298976049
 C -0.7054790220 -1.1530535868 -0.0180692913
 C  0.6762944219 -1.1219336059 -0.0031461099
 H  2.4381864322  0.0989091436  0.0795575584
 H  1.1787931645  2.2428201784  0.1758536808
 H -1.2162656464  2.2199901929  0.0469512801
 H -2.4875027950  0.1733707293  0.0327394606
 H -1.2514508180 -2.0890808394 -0.0618758959
 H  1.2816144942 -2.0211871166 -0.0985379295
12
step 37
 C  1.3565876449  0.1136323572  0.0648310119
 C  0.6824880104  1.2878043509  0.1057175668
 C -0.7056818328  1.2642455329  0.0747437972
 C -1.4089222019  0.0878789017  0.0292272549
 C -0.7054709067 -1.1496142399 -0.0179848647
 C  0.6755181623 -1.1218144272 -0.0035160498
 H  2.4395054639  0.1047682997  0.0856657892
 H  1.1800916611  2.2373453680  0.1830726232
 H -1.2169415017  2.2291248246  0.0528117969
 H -2.4890615001  0.1744185632  0.0351221092
 H -1.2470162529 -2.0898838553 -0.0597660317
 H  1.2905820775 -2.0232253316 -0.1028210244
12
step 38
 C  1.3570458410  0.1171957211  0.0669897370
 C  0.6801020711  1.2890061331  0.1068171252
 C -0.7064798825  1.2646018745  0.0777719458
 C -1.4093549491  0.0922135554  0.0285598676
 C -0.7055251168 -1.1459675660 -0.0178678559
 C  0.6748163876 -1.1216301236 -0.0039583365
 H  2.4408190157  0.1106104474  0.0917208182
 H  1.1822284567  2.2323679768  0.1900359300
 H -1.2178079286  2.2370122817  0.0591506275
 H -2.4906329379  0.1739974950  0.0372470230
 H -1.2424505348 -2.0903723737 -0.0577441350
 H  1.2980601435 -2.0245830918 -0.1064760059
12
step 39
 C  1.3576407975  0.1204243132  0.0691477120
 C  0.6776450305  1.2902558472  0.1079562468
 C -0.7074216035  1.2652444214  0.0807601649
 C -1.4097053375  0.0963810651  0.0279031718
 C -0.7056330768 -1.1421444787 -0.0177223464
 C  0.6742413813 -1.1213820994 -0.0044756294
 H  2.4420189506  0.1164228765  0.0976980843
 H  1.1852330743  2.2282608609  0.1967405173
 H -1.2185813975  2.2430147627  0.0659651801
 H -2.4921113894  0.1721758041  0.0390961255
 H -1.2378109685 -2.0903648406 -0.0558316418
 H  1.3035912490 -2.0247995358 -0.1094175418
12
step 40
 C  1.3583549426  0.1232972972  0.0713005538
 C  0.6751540138  1.2915317248  0.1091445535
 C -0.7085340393  1.2662468695  0.0837043577
 C -1.4099991352  0.1003445120  0.0272643619
 C -0.7057833614 -1.1381735741 -0.0175526944
 C  0.6738330243 -1.1210587912 -0.0050681287
 H  2.4430238586  0.1221885464  0.1035738160
 H  1.1890675366  2.2252763113  0.2031790840
 H -1.2190754006  2.2466987674  0.0732413991
 H -2.4933977531  0.1690433586  0.0406544529
 H -1.2331707076 -2.0897104579 -0.0540495817
 H  1.3068571928 -2.0235952304 -0.1115846454
12
step 41
 C  1.3591668442  0.1257986646  0.0734438504
 C  0.6726701954  1.2928221575  0.1103918153
 C -0.7098319753  1.2676602526  0.0866021883
 C -1.4102600819  0.1040679566  0.0266498933
 C -0.7059618128 -1.1340794204 -0.0173634478
 C  0.6736167564 -1.1206340048 -0.0057332988
 H  2.4437860802  0.1278858802  0.1093255508
 H  1.1936152250  2.2235205272  0.2093362661
 H -1.2192166257  2.2478716726  0.0809555709
 H -2.4944115176  0.1647092782  0.0419106208
 H -1.2286213043 -2.0883016070 -0.0524185777
 H  1.3077008504 -2.0208945573 -0.1129452936
12
step 42
 C  1.3600514414  0.1279181155  0.0755730272
 C  0.6702389937  1.2941258265  0.1117083361
 C -0.7113182603  1.2695098219  0.0894524246
 C -1.4105084076  0.1075184965  0.0260659238
 C -0.7061505642 -1.1298822494 -0.0171593874
 C  0.6736015819 -1.1200672536 -0.0064656153
 H  2.4442941433  0.1334883735  0.1149318562
 H  1.1986806729  2.2229514808  0.2151854390
 H -1.2190516415  2.2465983648  0.0890760916
 H -2.4951002528  0.1593002235  0.0428567264
 H -1.2242731715 -2.0860814739 -0.0509590748
 H  1.3061339746 -2.0168303102 -0.1134977306
12
step 43
 C  1.3609808806  0.1296507914  0.0776834583
 C  0.6679075659  1.2954507605  0.1131047443
 C -0.7129832547  1.2717944300  0.0922548047
 C -1.4107597648  0.1106668935  0.0255180740
 C -0.7063290497 -1.1255972572 -0.0169454913
 C  0.6737805391 -1.1193048184 -0.0072567155
 H  2.4445714448  0.1389647208  0.1203729173
 H  1.2040012494  2.2233963998  0.2206896388
 H -1.2187446155  2.2431991814  0.0975673518
 H -2.4954455180  0.1529568533  0.0434889199
 H -1.2202525704 -2.0830467709 -0.0496909143
 H  1.3023346746 -2.0117354131 -0.1132703679
12
step 44
 C  1.3619256482  0.1309973477  0.0797705223
 C  0.6657220750  1.2968116969  0.1145916917
 C -0.7148055333  1.2744875913  0.0950096750
 C -1.4110246804  0.1134885090  0.0250114012
 C -0.7064749427 -1.1212347166 -0.0167269484
 C  0.6741321059 -1.1182823571 -0.0080957336
 H  2.4446708137  0.1442791129  0.1256308049
 H  1.2092694032  2.2245873793  0.2258047276
 H -1.2185661942  2.2382286465  0.1063938135
 H -2.4954647702  0.1458301965  0.0438076698
 H -1.2166960541 -2.0792448350 -0.0486329125
 H  1.2966313404 -2.0061183313 -0.1123186691
12
step 45
 C  1.3628559939  0.1319639767  0.0818296796
 C  0.6637245268  1.2982266443  0.1161794227
 C -0.7167534655  1.2775407957  0.0977176364
 C -1.4113085682  0.1159640129  0.0245504066
 C -0.7065654977 -1.1168005782 -0.0165091760
 C  0.6746231100 -1.1169290838 -0.0089698626
 H  2.4446656554  0.1493916678  0.1306894370
 H  1.2141615628  2.2262069508  0.2304843611
 H -1.2188716214  2.2324315091  0.1155237999
 H -2.4952091101  0.1380778588  0.0438177914
 H -1.2137425932 -2.0747654640 -0.0478023806
 H  1.2894716186 -2.0006198534 -0.1107191550
12
step 46
 C  1.3637435426  0.1325624713  0.0838565741
 C  0.6619496853  1.2997132934  0.1178772927
 C -0.7187879672  1.2808893756  0.1003792681
 C -1.4116122851  0.1180799111  0.0241390777
 C -0.7065791422 -1.1122975338 -0.0162978377
 C  0.6752131450 -1.1151737838 -0.0098651444
 H  2.4446387110  0.1542588978  0.1355342467
 H  1.2183690492  2.2279355094  0.2346857926
 H -1.2200656953  2.2266720473  0.1249321246
 H -2.4947571100  0.1298602913  0.0435282375
 H -1.2115239481 -2.0697282526 -0.0472146214
 H  1.2813751012 -1.9959484766 -0.1085605722
12
step 47
 C  1.3645629640  0.1328103646  0.0858471643
 C  0.6604224877  1.3012857936  0.1196933006
 C -0.7208665920  1.2844609298  0.1029950334
 C -1.4119331436  0.1198289303  0.0237809384
 C -0.7064971395 -1.1077264446 -0.0160988591
 C  0.6758602561 -1.1129526355 -0.0107674656
 H  2.4446697829  0.1588342072  0.1401517385
 H  1.2216268035  2.2294939998  0.2383756618
 H -1.2225535627  2.2218359836  0.1346006621
 H -2.4942053947  0.1213372786  0.0429517209
 H -1.2101540789 -2.0642667551 -0.0468824136
 H  1.2728712303 -1.9927948271 -0.1059328453
12
step 48
 C  1.3652935143  0.1327308017  0.0877977570
 C  0.6591556677  1.3029525332  0.1216337851
 C -0.7229478848  1.2881859250  0.1055653762
 C -1.4122662823  0.1212097189  0.0234792195
 C -0.7063058922 -1.1030877679 -0.0159184835
 C  0.6765278436 -1.1102178158 -0.0116633978
 H  2.4448236397  0.1630675221  0.1445285548
 H  1.2237356325  2.2306763686  0.2415343772
 H -1.2266801311  2.2187120373  0.1445148115
 H -2.4936575386  0.1126652923  0.0421042362
 H -1.2097189669 -2.0585122878 -0.0468154807
 H  1.2644304555 -1.9917332419 -0.1029159200
12
step 49
 C  1.3659203676  0.1323531160  0.0897053729
 C  0.6581496681  1.3047139228  0.1237029524
 C -0.7249984614  1.2920077028  0.1080913537
 C -1.4126060163  0.1222279533  0.0232366498
 C -0.7059968661 -1.0983835590 -0.0157631707
 C  0.6771894492 -1.1069468875 -0.0125415848
 H  2.4451409456  0.1669077063  0.1486519510
 H  1.2245811655  2.2313751597  0.2441608208
 H -1.2326670256  2.2178731320  0.1546594099
 H -2.4932111111  0.1039939372  0.0410044616
 H -1.2102668059 -2.0525761154 -0.0470201536
 H  1.2563961874 -1.9931222462 -0.0995689551
12
step 50
 C  1.3664354827  0.1317124597  0.0915677578
 C  0.6573918918  1.3065619949  0.1259028265
 C -0.7269968730  1.2958911640  0.1105752254
 C -1.4129472411  0.1228957390  0.0230556101
 C -0.7055682484 -1.0936186372 -0.0156396333
 C  0.6778332544 -1.1031489272 -0.0133931073
 H  2.4456319485  0.1703025342  0.1525091418
 H  1.2241414131  2.2315917731  0.2462736937
 H -1.2405605474  2.2195821206  0.1650094125
 H -2.4929463651  0.0954644101  0.0396731557
 H -1.2118012819 -2.0465371733 -0.0474990837
 H  1.2489411753 -1.9970322624 -0.0959253759
12
step 51
 C  1.3668379653  0.1308495145  0.0933834636
 C  0.6568571837  1.3084806457  0.1282332598
 C -0.7289361101  1.2998267413  0.1130211305
 C -1.4132865295  0.1232315080  0.0229381923
 C -0.7050253549 -1.0888015531 -0.0155548045
 C  0.6784630684 -1.0988670210 -0.0142115078
 H  2.4462747451  0.1731997155  0.1560871697
 H  1.2224873469  2.2314365636  0.2479114575
 H -1.2502052327  2.2237493965  0.1755208569
 H -2.4929170751  0.0872081115  0.0381325630
 H -1.2142780054 -2.0404343785 -0.0482511684
 H  1.2420556964 -2.0032163659 -0.0919938184
12
step 52
 C  1.3671338668  0.1298099765  0.0951518837
 C  0.6565090144  1.3104468119  0.1306921014
 C -0.7308232446  1.3038288071  0.1154355297
 C -1.4136228249  0.1232599483  0.0228862659
 C -0.7043804119 -1.0839450125 -0.0155157864
 C  0.6790960583 -1.0941759308 -0.0149923015
 H  2.4470182232  0.1755482788  0.1593730536
 H  1.2197753141  2.2311175508  0.2491304145
 H -1.2612516351  2.2299547541  0.1861244864
 H -2.4931449831  0.0793456419  0.0364059168
 H -1.2176049364 -2.0342654881 -0.0492716857
 H  1.2355719020 -2.0111346856 -0.0877650025
12
step 53
 C  1.3673354393  0.1286437818  0.0968732425
 C  0.6563013450  1.3124325866  0.1332755220
 C -0.7326763577  1.3079291482  0.1178272304
 C -1.4139576674  0.1230119595  0.0229015456
 C -0.7036517242 -1.0790656957 -0.0155297830
 C  0.6797579419 -1.0891754128 -0.0157321602
 H  2.4477892646  0.1773003955  0.1623542591
 H  1.2162314205  2.2309178421  0.2500010245
 H -1.2731967247  2.2375262546  0.1967244345
 H -2.4936185477  0.0719859911  0.0345170657
 H -1.2216469383 -2.0279926432 -0.0505526531
 H  1.2292161953 -2.0200263671 -0.0832222289
12
step 54
 C  1.3674599259  0.1274040758  0.0985485378
 C  0.6561811472  1.3144082223  0.1359784868
 C -0.7345196932  1.3121675435  0.1202069609
 C -1.4142949685  0.1225245843  0.0229856533
 C -0.7028623296 -1.0741835117 -0.0156040189