12
step 0
 C  1.3868353850  0.0000000000 -0.0000000000
 C  0.6934069366  1.2009964011  0.0000000000
 C -0.6934069366  1.2009964011  0.0000000000
 C -1.3868353850 -0.0000000000 -0.0000000000
 C -0.6934069366 -1.2009964011 -0.0000000000
 C  0.6934069366 -1.2009964011  0.0000000000
 H  2.4694773417 -0.0000000000 -0.0000000000
 H  1.2346489211  2.1386345090 -0.0000000000
 H -1.2346489211  2.1386345090  0.0000000000
 H -2.4694773417 -0.0000000000 -0.0000000000
 H -1.2346489211 -2.1386345090 -0.0000000000
 H  1.2346489211 -2.1386345090  0.0000000000
12
step 1
 C  1.3878732268  0.0018666049  0.0015380670
 C  0.6918136622  1.2075934778  0.0052458136
 C -0.6920125192  1.2028853660  0.0006363435
 C -1.3847974827 -0.0008584641  0.0024635485
 C -0.6966914748 -1.1972059126 -0.0007549202
 C  0.6903144158 -1.1971063715 -0.0004870137
 H  2.4718843626 -0.0031141312 -0.0024364846
 H  1.2402553871  2.1358245159 -0.0003683422
 H -1.2448779544  2.1439389368  0.0007224936
 H -2.4677670088 -0.0124702324 -0.0027929065
 H -1.2315065696 -2.1392554727 -0.0066282144
 H  1.2355119548 -2.1420983170  0.0028616154
12
step 2
 C  1.3888710727  0.0037243890  0.0030679001
 C  0.6902586217  1.2140636813  0.0104422707
 C -0.6906921405  1.2048409742  0.0012820186
 C -1.3828158192 -0.0016876546  0.0048989702
 C -0.6999218689 -1.1934934690 -0.0015048011
 C  0.6873248640 -1.1932915799 -0.0009645174
 H  2.4741089468 -0.0061306666 -0.0048197359
 H  1.2459093721  2.1335725849 -0.0006809763
 H -1.2544879204  2.1484135253  0.0014271527
 H -2.4660238139 -0.0246031375 -0.0055336815
 H -1.2284565113 -2.1397280464 -0.0131739466
 H  1.2358920896 -2.1447537311  0.0056403299
12
step 3
 C  1.3897964402  0.0055747392  0.0045909294
 C  0.6887699847  1.2203301200  0.0155734896
 C -0.6895044450  1.2069285492  0.0019498043
 C -1.3809340443 -0.0024616916  0.0072940108
 C -0.7030633945 -1.1899133076 -0.0022495091
 C  0.6845135142 -1.1895924172 -0.0014259179
 H  2.4760028643 -0.0089735489 -0.0071113004
 H  1.2516703042  2.1323517338 -0.0008896397
 H -1.2629977161  2.1514065439  0.0021015643
 H -2.4642087969 -0.0361448593 -0.0081870658
 H -1.2255713298 -2.1399189643 -0.0195963249
 H  1.2353914598 -2.1459483265  0.0082696905
12
step 4
 C  1.3906176734  0.0074177241  0.0061086720
 C  0.6873768512  1.2263298264  0.0206243635
 C -0.6884970153  1.2091944198  0.0026518848
 C -1.3791939109 -0.0031527372  0.0096370407
 C -0.7060801299 -1.1865172555 -0.0029890582
 C  0.6819429034 -1.1860340397 -0.0018647367
 H  2.4774463509 -0.0115704647 -0.0092731063
 H  1.2575447647  2.1325103586 -0.0009500345
 H -1.2700420432  2.1524695195  0.0027344234
 H -2.4622955494 -0.0468525698 -0.0107181121
 H -1.2229267453 -2.1397173009 -0.0258557823
 H  1.2337282766 -2.1452214683  0.0106842103
12
step 5
 C  1.3913039306  0.0092525101  0.0076227419
 C  0.6861100803  1.2320171974  0.0255805085
 C -0.6877034906  1.2116623407  0.0033997845
 C -1.3776333177 -0.0037314039  0.0119171592
 C -0.7089352482 -1.1833524271 -0.0037235521
 C  0.6796598829 -1.1826238483 -0.0022748822
 H  2.4783578451 -0.0138544332 -0.0112681527
 H  1.2634647917  2.1342352302 -0.0008197146
 H -1.2753989526  2.1513925784  0.0033159005
 H -2.4602796156 -0.0564996931 -0.0130929165
 H -1.2206033947 -2.1390456117 -0.0319148851
 H  1.2307590770 -2.1423397995  0.0128221358
12
step 6
 C  1.3918254142  0.0110779795  0.0091348534
 C  0.6850022448  1.2373652282  0.0304281614
 C -0.6871418127  1.2143319947  0.0042043256
 C -1.3762846485 -0.0041674327  0.0141242696
 C -0.7115916724 -1.1804591733 -0.0044531024
 C  0.6776939240 -1.1793508225 -0.0026509003
 H  2.4786995823 -0.0157653074 -0.0130612003
 H  1.2692791082  2.1375377524 -0.0004559293
 H -1.2790044405  2.1482179351  0.0038379041
 H -2.4581851524 -0.0648808147 -0.0152794324
 H -1.2186869474 -2.1378676550 -0.0377391784
 H  1.2264884550 -2.1373118218  0.0146279501
12
step 7
 C  1.3921538897  0.0128934931  0.0106468194
 C  0.6840864799  1.2423644324  0.0351541092
 C -0.6868134834  1.2171792361  0.0050756029
 C -1.3751735297 -0.0044305873  0.0162491306
 C -0.7140130826 -1.1778694176 -0.0051777383
 C  0.6760565789 -1.1761864118 -0.0029881824
 H  2.4784786637 -0.0172510918 -0.0146194021
 H  1.2747600874  2.1422654492  0.0001857797
 H -1.2809557692  2.1432355813  0.0042942138
 H -2.4560678626 -0.0718160577 -0.0172482740
 H -1.2172663360 -2.1361918095 -0.0432979424
 H  1.2210680742 -2.1303848402  0.0160543624
12
step 8
 C  1.3922634960  0.0146997312  0.0121605487
 C  0.6833943224  1.2470198223  0.0397457132
 C -0.6867038578  1.2201579908  0.0060229740
 C -1.3743180914 -0.0044916994  0.0182833877
 C -0.7161652401 -1.1756054868 -0.0058973201
 C  0.6747420796 -1.1730868938 -0.0032831165
 H  2.4777436006 -0.0182689941 -0.0159128181
 H  1.2796253504  2.1481350863  0.0011516906
 H -1.2815034863  2.1369621179  0.0046804750
 H -2.4540136819 -0.0771547252 -0.0189734084
 H -1.2164301037 -2.1340697471 -0.0485647572
 H  1.2147852735 -2.1220248884  0.0170635885
12
step 9
 C  1.3921318152  0.0164995327  0.0136780419
 C  0.6829529353  1.2513466667  0.0441910498
 C -0.6867836766  1.2232039766  0.0070550622
 C -1.3737287758 -0.0043237972  0.0202195868
 C -0.7180175593 -1.1736795043 -0.0066114695
 C  0.6737291697 -1.1699973309 -0.0035331640
 H  2.4765767302 -0.0187861376 -0.0169147717
 H  1.2835694713  2.1547797519  0.0024886159
 H -1.2810301901  2.1301005842  0.0049940737
 H -2.4521331612 -0.0807780347 -0.0204326495
 H -1.2162610726 -2.1315903519 -0.0535177873
 H  1.2080401204 -2.1128775465  0.0176277274
12
step 10
 C  1.3917411299  0.0182986711  0.0152013886
 C  0.6827822670  1.2553658394  0.0484791522
 C -0.6870121374  1.2262405073  0.0081797603
 C -1.3734086867 -0.0039032241  0.0220511714
 C -0.7195448099 -1.1720933832 -0.0073195271
 C  0.6729842829 -1.1668573547 -0.0037368472
 H  2.4750832852 -0.0187798865 -0.0176020299
 H  1.2862995748  2.1618008348  0.0042415255
 H -1.2800131068  2.1234776900  0.0052339559
 H -2.4505519600 -0.0826008277 -0.0216078970
 H -1.2168297178 -2.1288693646 -0.0581397320
 H  1.2013092846 -2.1037064887  0.0177280692
12
step 11
 C  1.3910797546  0.0201065152  0.0167327618
 C  0.6828926611  1.2590994419  0.0526003106
 C -0.6873416979  1.2291864706  0.0094042167
 C -1.3733544251 -0.0032106459  0.0237724670
 C -0.7207287934 -1.1708394030 -0.0080205454
 C  0.6724660501 -1.1636088357 -0.0038936471
 H  2.4733782719 -0.0182377801 -0.0179548102
 H  1.2875688927  2.1688170201  0.0064506319
 H -1.2789687213  2.1179566695  0.0054005303
 H -2.4493983508 -0.0825722310 -0.0224851025
 H -1.2181868321 -2.1260357874 -0.0624174269
 H  1.1950964290 -2.0953086347  0.0173533202
12
step 12
 C  1.3901432960  0.0219366224  0.0182744130
 C  0.6832834754  1.2625670999  0.0565466948
 C -0.6877249824  1.2319657932  0.0107346373
 C -1.3735572152 -0.0022315232  0.0253788054
 C -0.7215593853 -1.1699014528 -0.0087134293
 C  0.6721303326 -1.1602052633 -0.0040038994
 H  2.4715739761 -0.0171570259 -0.0179569662
 H  1.2872053888  2.1755065570  0.0091481886
 H -1.2783816053  2.1143295321  0.0054956503
 H -2.4487883813 -0.0806749917 -0.0230543373
 H -1.2203557871 -2.1232156641 -0.0663416484
 H  1.1898719151 -2.0884094749  0.0164968887
12
step 13
 C  1.3889356818  0.0238067650  0.0198286326
 C  0.6839419093  1.2657833760  0.0603118369
 C -0.6881205061  1.2345181673  0.0121765223
 C -1.3740045098 -0.0009573329  0.0268661063
 C -0.7220366071 -1.1692561090 -0.0093967302
 C  0.6719370646 -1.1566204088 -0.0040684474
 H  2.4697639329 -0.0155440092 -0.0175949662
 H  1.2851270532  2.1816334775  0.0123570120
 H -1.2786282132  2.1132049586  0.0055237520
 H -2.4488134175 -0.0769252318 -0.0233084372
 H -1.2233272472 -2.1205193254 -0.0699049025
 H  1.1860119028 -2.0835579350  0.0151545603
12
step 14
 C  1.3874698057  0.0257389326  0.0213977222
 C  0.6848433371  1.2687560633  0.0638911575
 C -0.6884995767  1.2368074995  0.0137343196
 C -1.3746813116  0.0006145340  0.0282310112
 C -0.7221707722 -1.1688743551 -0.0100688323
 C  0.6718546465 -1.1528562487 -0.0040885928
 H  2.4680142897 -0.0134133001 -0.0168580810
 H  1.2813530240  2.1870675651  0.0160884660
 H -1.2799094542  2.1149107308  0.0054928656
 H -2.4495270456 -0.0713706330 -0.0232429423
 H -1.2270539688 -2.1180275735 -0.0731010601
 H  1.1837461849 -2.0810336049  0.0133227142
12
step 15
 C  1.3857676184  0.0277587698  0.0229839683
 C  0.6859520813  1.2714855999  0.0672820739
 C -0.6888501712  1.2388269563  0.0154112131
 C -1.3755714174  0.0024808270  0.0294708658
 C -0.7219825354 -1.1687230728 -0.0107280317
 C  0.6718629591 -1.1489467665 -0.0040661060
 H  2.4663577895 -0.0107867134 -0.0157382990
 H  1.2760040305  2.1917912840  0.0203419386
 H -1.2822114448  2.1194382363  0.0054160491
 H -2.4509362917 -0.0640886962 -0.0228557804
 H -1.2314488032 -2.1157831140 -0.0759248019
 H  1.1831295873 -2.0807957813  0.0109981101
12
step 16
 C  1.3838595866  0.0298947997  0.0245896283
 C  0.6872229781  1.2739654261  0.0704840072
 C -0.6891775459  1.2405987926  0.0172089373
 C -1.3766583449  0.0046330542  0.0305837117
 C -0.7215020863 -1.1687664334 -0.0113726120
 C  0.6719535788 -1.1449567488 -0.0040033862
 H  2.4647925826 -0.0076923456 -0.0142303013
 H  1.2692941786  2.1958955149  0.0251055236
 H -1.2853062418  2.1264449390  0.0053126981
 H -2.4529978167 -0.0551848952 -0.0221470764
 H -1.2363860298 -2.1137875113 -0.0783713853
 H  1.1840440583 -2.0824880201  0.0081794355
12
step 17
 C  1.3817835374  0.0321773554  0.0262168925
 C  0.6886035066  1.2761833309  0.0734981555
 C -0.6895014715  1.2421691366  0.0191276944
 C -1.3779258289  0.0070584789  0.0315682268
 C -0.7207676313 -1.1689669507 -0.0120008451
 C  0.6721273948 -1.1409756552 -0.0039036792
 H  2.4632860248 -0.0041634983 -0.0123314632
 H  1.2615148603  2.1995639975  0.0303576037
 H -1.2887923603  2.1353140000  0.0052095108
 H -2.4556196999 -0.0447909985 -0.0211189455
 H -1.2417061090 -2.1120041410 -0.0804362563
 H  1.1862300516 -2.0854972904  0.0048707538
12
step 18
 C  1.3795829313  0.0346370026  0.0278678518
 C  0.6900362423  1.2781238906  0.0763272407
 C -0.6898509315  1.2435994003  0.0211661601
 C -1.3793578512  0.0097411372  0.0324237210
 C -0.7198234990 -1.1692860609 -0.0126109675
 C  0.6723907122 -1.1371078333 -0.0037712855
 H  2.4617827542 -0.0002375579 -0.0100420595
 H  1.2530115278  2.2030467301  0.0360691227
 H -1.2921628734  2.1452533833  0.0051404022
 H -2.4586687637 -0.0330633256 -0.0197756751
 H -1.2472236736 -2.1103665142 -0.0821152520
 H  1.1893375599 -2.0890512339  0.0010852230
12
step 19
 C  1.3773047777  0.0373028581  0.0295444575
 C  0.6914618429  1.2797717438  0.0789752567
 C -0.6902586320  1.2449561567  0.0233215417
 C -1.3809381774  0.0126632737  0.0331501580
 C -0.7187174243 -1.1696843854 -0.0132010684
 C  0.6727502275 -1.1334617878 -0.0036116607
 H  2.4602176894  0.0040455749 -0.0073657901
 H  1.2441566735  2.2066250881  0.0422057478
 H -1.2948823967  2.1554087094  0.0051454656
 H -2.4619814171 -0.0201807308 -0.0181242303
 H -1.2527371925 -2.1087893559 -0.0834050478
 H  1.1929833216 -2.0923281446 -0.0031517757
12
step 20
 C  1.3749970942  0.0402002934  0.0312485639
 C  0.6928219762  1.2811156836  0.0814473542
 C -0.6907541495  1.2463024199  0.0255898200
 C -1.3826499526  0.0158058029  0.0337483334
 C -0.7174989468 -1.1701218406 -0.0137692254
 C  0.6732102618 -1.1301384273 -0.0034314177
 H  2.4585247935  0.0086439443 -0.0043097006
 H  1.2353137648  2.2105649697  0.0487319411
 H -1.2964594394  2.1649694756  0.0052683868
 H -2.4653812348 -0.0063415093 -0.0161750168
 H -1.2580430705 -2.1071850920 -0.0843051359
 H  1.1968046627 -2.0945636703 -0.0078032509
12
step 21
 C  1.3727065849  0.0433492506  0.0329818939
 C  0.6940625371  1.2821526181  0.0837495987
 C -0.6913602655  1.2476900566  0.0279659581
 C -1.3844749029  0.0191496689  0.0342198959
 C -0.7162165258 -1.1705576768 -0.0143133809
 C  0.6737692222 -1.1272226406 -0.0032381142
 H  2.4566509966  0.0135151332 -0.0008844933
 H  1.2268074332  2.2150725292  0.0556128732
 H -1.2965009814  2.1732523082  0.0055541680
 H -2.4686944899  0.0082399547 -0.0139424307
 H -1.2629475076 -2.1054771908 -0.0848186059
 H  1.2005009776 -2.0951327536 -0.0128212888
12
step 22
 C  1.3704764830  0.0467625562  0.0347460054
 C  0.6951363053  1.2828910627  0.0858888541
 C -0.6920902440  1.2491546696  0.0304441265
 C -1.3863926667  0.0226766848  0.0345674106
 C -0.7149152865 -1.1709505604 -0.0148313060
 C  0.6744177483 -1.1247767288 -0.0030399340
 H  2.4545666702  0.0186175019  0.0028954419
 H  1.2188972913  2.2202538818  0.0628157008
 H -1.2947492848  2.1797593770  0.0060465933
 H -2.4717660487  0.0233372990 -0.0114453378
 H -1.2672782575 -2.1036125747 -0.0849531622
 H  1.2038625863 -2.0936076223 -0.0181497066
12
step 23
 C  1.3683448085  0.0504445414  0.0365422384
 C  0.6960047941  1.2833534101  0.0878727624
 C -0.6929464351  1.2507125731  0.0330179049
 C -1.3883803046  0.0263701017  0.0347944019
 C -0.7136351521 -1.1712588031 -0.0153205852
 C  0.6751378703 -1.1228361509 -0.0028452875
 H  2.4522730511  0.0239113339  0.0070121669
 H  1.2117611976  2.2260879528  0.0703094520
 H -1.2911022193  2.1842138061  0.0067858923
 H -2.4744729184  0.0387168413 -0.0087073160
 H -1.2708944396 -2.1015707055 -0.0847218582
 H  1.2067877298 -2.0897919866 -0.0237276946
12
step 24
 C  1.3663431689  0.0543900979  0.0383716459
 C  0.6966390794  1.2835764332  0.0897098113
 C -0.6939199239  1.2523595522  0.0356804508
 C -1.3904120964  0.0302148854  0.0349053725
 C -0.7124094672 -1.1714408081 -0.0157786305
 C  0.6759029889 -1.1214073954 -0.0026623763
 H  2.4498057412  0.0293598194  0.0114445133
 H  1.2054904509  2.2324185531  0.0780636251
 H -1.2856202012  2.1865761181  0.0078067501
 H -2.4767341683  0.0541426041 -0.0057565986
 H -1.2736936038 -2.0993684108 -0.0841434527
 H  1.2092895736 -2.0837346085 -0.0294939698
12
step 25
 C  1.3644961662  0.0585842680  0.0402349176
 C  0.6970196193  1.2836098212  0.0914094574
 C -0.6949910335  1.2540711877  0.0384246319
 C -1.3924597006  0.0341977117  0.0349057945
 C -0.7112641729 -1.1714557739 -0.0162027302
 C  0.6766785521 -1.1204678591 -0.0024987618
 H  2.4472338569  0.0349298359  0.0161685599
 H  1.2000969046  2.2389679385  0.0860459951
 H -1.2785219737  2.1870444667  0.0091367890
 H -2.4785163826  0.0693814928 -0.0026257003
 H -1.2756155123 -2.0970599831 -0.0832423377
 H  1.2114943296 -2.0757243018 -0.0353909815
12
step 26
 C  1.3628214121  0.0630024193  0.0421323088
 C  0.6971352846  1.2835129545  0.0929822501
 C -0.6961306504  1.2558047540  0.0412431175
 C -1.3944927131  0.0383066952  0.0348020735
 C -0.7102175656 -1.1712646521 -0.0165901347
 C  0.6774234559 -1.1199677780 -0.0023609810
 H  2.4446548286  0.0405925021  0.0211582359
 H  1.1955295183  2.2453694247  0.0942203666
 H -1.2701696447  2.1860386273  0.0107956870
 H -2.4798342629  0.0842084010  0.0006492529
 H -1.2766423747 -2.0947324951 -0.0820480334
 H  1.2136301446 -2.0662660213 -0.0413686675
12
step 27
 C  1.3613300940  0.0676110065  0.0440635857
 C  0.6969819441  1.2833504594  0.0944398976
 C -0.6973024816  1.2575029166  0.0441284241
 C -1.3964796245  0.0425308865  0.0346014821
 C -0.7092806321 -1.1708313223 -0.0169381757
 C  0.6780923224 -1.1198343967 -0.0022542662
 H  2.4421852868  0.0463234893  0.0263860045
 H  1.1916963365  2.2512128021  0.1025450184
 H -1.2610417451  2.1841649150  0.0127951656
 H -2.4807464329  0.0984110055  0.0040294390
 H -1.2767955855 -2.0924967138 -0.0805942926
 H  1.2160050737 -2.0560357353 -0.0473871186
12
step 28
 C  1.3600279782  0.0723688686  0.0460279980
 C  0.6965609628  1.2831872360  0.0957952325
 C -0.6984664075  1.2590995269  0.0470729000
 C -1.3983891250  0.0468595922  0.0343120615
 C -0.7084579071 -1.1701239098 -0.0172444091
 C  0.6786388355 -1.1199785298 -0.0021824401
 H  2.4399489576  0.0521030866  0.0318235644
 H  1.1884877026  2.2560945945  0.1109723283
 H -1.2516925762  2.1821579799  0.0151401189
 H -2.4813468939  0.1117939906  0.0074744177
 H -1.2761293308 -2.0904744086 -0.0789178957
 H  1.2189721129 -2.0458118508 -0.0534173234
12
step 29
 C  1.3589166936  0.0772289409  0.0480242798
 C  0.6958778772  1.2830836240  0.0970620620
 C -0.6995829616  1.2605276205  0.0500686359
 C -1.4001916594  0.0512815793  0.0339424957
 C -0.7077487431 -1.1691161368 -0.0175067686
 C  0.6790201757 -1.1203033349 -0.0021480566
 H  2.4380629470  0.0579160340  0.0374424890
 H  1.1857973822  2.2596657340  0.1194497107
 H -1.2426976719  2.1807974221  0.0178310404
 H -2.4817529735  0.1241824720  0.0109432589
 H -1.2747217809 -2.0887832742 -0.0770572597
 H  1.2228807924 -2.0363844320 -0.0594391468
12
step 30
 C  1.3579950974  0.0821402061  0.0500506740
 C  0.6949413875  1.2830912204  0.0982549115
 C -0.7006186180  1.2617291796  0.0531073075
 C -1.4018610932  0.0557842249  0.0335019637
 C -0.7071488361 -1.1677885708 -0.0177237122
 C  0.6792022660 -1.1207144833 -0.0021528209
 H  2.4366241272  0.0637511387  0.0432147251
 H  1.1835395548  2.2616711772  0.1279216888
 H -1.2345891287  2.1808033720  0.0208675762
 H -2.4820910020  0.1354244740  0.0143956059
 H -1.2726649405 -2.0875210936 -0.0750510166
 H  1.2280186465 -2.0284505412 -0.0654361114
12
step 31
 C  1.3572605168  0.0870496877  0.0521049734
 C  0.6937626830  1.2832496715  0.0993886872
 C -0.7015511015  1.2626653994  0.0561799952
 C -1.4033763197  0.0603526868  0.0329999796
 C -0.7066518025 -1.1661296253 -0.0178943456
 C  0.6791650699 -1.1211301518 -0.0021982408
 H  2.4356974556  0.0696006943  0.0491128900
 H  1.1816607939  2.2619782724  0.1363327287
 H -1.2277899531  2.1827247463  0.0242525293
 H -2.4824812665  0.1453924422  0.0177925660
 H -1.2700545044 -2.0867510710 -0.0729367296
 H  1.2345512423 -2.0225126746 -0.0713875097
12
step 32
 C  1.3567096812  0.0919043014  0.0541845659
 C  0.6923550491  1.2835846151  0.1004782958
 C -0.7023735615  1.2633254264  0.0592770651
 C -1.4047226294  0.0649691778  0.0324462334
 C -0.7062505830 -1.1641361719 -0.0180185090
 C  0.6789067888 -1.1214887946 -0.0022863555
 H  2.4353078861  0.0754597242  0.0551103511
 H  1.1801468711  2.2605924781  0.1446303926
 H -1.2225609110  2.1868429144  0.0279951732
 H -2.4830239729  0.1539839283  0.0210973598
 H -1.2669811454 -2.0864903220 -0.0707498978
 H  1.2424739354 -2.0188028256 -0.0772596318
12
step 33
 C  1.3563392179  0.0966524371  0.0562864799
 C  0.6907336845  1.2841068546  0.1015382668
 C -0.7030964635  1.2637313517  0.0623882064
 C -1.4058926746  0.0696124350  0.0318504417
 C -0.7059384729 -1.1618136546 -0.0180968179
 C  0.6784457731 -1.1217528904 -0.0024203166
 H  2.4354370612  0.0813250857  0.0611811177
 H  1.1790244555  2.2576600208  0.1527683597
 H -1.2189732971  2.1931159251  0.0321126540
 H -2.4837879015  0.1611217014  0.0242757127
 H -1.2635244654 -2.0867032510 -0.0685233496
 H  1.2515888162 -2.0172522048 -0.0829987850
12
step 34
 C  1.3561456718  0.1012452134  0.0584074263
 C  0.6889156826  1.2848128084  0.1025824233
 C -0.7037465810  1.2639379784  0.0655026832
 C -1.4068868997  0.0742574594  0.0312222154
 C -0.7057096438 -1.1591756359 -0.0181306571
 C  0.6778194455 -1.1219079113 -0.0026046109
 H  2.4360252701  0.0871944773  0.0672996239
 H  1.1783577045  2.2534574125  0.1607088787
 H -1.2169149586  2.2011800601  0.0366287833
 H -2.4848031541  0.1667535727  0.0272960201
 H -1.2597503866 -2.0873009434 -0.0662870511
 H  1.2615146957 -2.0175148886 -0.0885286037
12
step 35
 C  1.3561250942  0.1056374081  0.0605438390
 C  0.6869201761  1.2856862425  0.1036236489
 C -0.7043633341  1.2640273574  0.0686097817
 C -1.4077133641  0.0788755739  0.0305709478
 C -0.7055591261 -1.1562427692 -0.0181221330
 C  0.6770803706 -1.1219571661 -0.0028448351
 H  2.4369783647  0.0930654039  0.0734405031
 H  1.1782396100  2.2483679227  0.1684242286
 H -1.2161270178  2.2104086400  0.0415704681
 H -2.4860588678  0.1708521555  0.0301293641
 H -1.2557121236 -2.0881468619 -0.0640682780
 H  1.2717284070 -2.0190376390 -0.0937527859
12
step 36
 C  1.3562723272  0.1097881107  0.0626919171
 C  0.6847686716  1.2867012263  0.1046737893
 C -0.7049934580  1.2640995478  0.0716993600
 C -1.4083869540  0.0834347977  0.0299057197
 C -0.7054823242 -1.1530412631 -0.0180739930
 C  0.6762903691 -1.1219142350 -0.0031470827
 H  2.4381786076  0.0989341523  0.0795784489
 H  1.1787780461  2.2428456836  0.1758967975
 H -1.2162601406  2.2200112357  0.0469628860
 H -2.4875060872  0.1734146405  0.0327494735
 H -1.2514542358 -2.0890682006 -0.0618920436
 H  1.2816270043 -2.0211560698 -0.0985625600
12
step 37
 C  1.3565801456  0.1136611508  0.0648476667
 C  0.6824855955  1.2878261170  0.1057437135
 C -0.7056852615  1.2642617981  0.0747623754
 C -1.4089280543  0.0879004970  0.0292352204
 C -0.7054742174 -1.1496009736 -0.0179895281
 C  0.6755139239 -1.1217949667 -0.0035171160
 H  2.4394979175  0.1047948262  0.0856882154
 H  1.1800769991  2.2373695366  0.1831175021
 H -1.2169360585  2.2291481704  0.0528248074
 H -2.4890652700  0.1744625243  0.0351327096
 H -1.2470187517 -2.0898714390 -0.0597816510
 H  1.2905967367 -2.0231945044 -0.1028468552
12
step 38
 C  1.3570384296  0.1172253569  0.0670069382
 C  0.6800990009  1.2890281717  0.1068435297
 C -0.7064835056  1.2646181595  0.0777912831
 C -1.4093608163  0.0922362465  0.0285676838
 C -0.7055284373 -1.1459533175 -0.0178724712
 C  0.6748119803 -1.1216105452 -0.0039595133
 H  2.4408117562  0.1106384831  0.0917447656
 H  1.1822144888  2.2323909665  0.1900825289
 H -1.2178026455  2.2370376337  0.0591651631
 H -2.4906372840  0.1740411326  0.0372581305
 H -1.2424520994 -2.0903601011 -0.0577592439
 H  1.2980765562 -2.0245523517 -0.1065028594
12
step 39
 C  1.3576335140  0.1204546934  0.0691654551
 C  0.6776412706  1.2902781787  0.1079829189
 C -0.7074254456  1.2652607889  0.0807802509
 C -1.4097111991  0.0964048293  0.0279108404
 C -0.7056364074 -1.1421292179 -0.0177269051
 C  0.6742368343 -1.1213623752 -0.0044769355
 H  2.4420119589  0.1164524076  0.0977235327
 H  1.1852200308  2.2282829032  0.1967887982
 H -1.2185763102  2.2430416630  0.0659813629
 H -2.4921163612  0.1722187635  0.0391076550
 H -1.2378115858 -2.0903525724 -0.0558462618
 H  1.3036089093 -2.0247686592 -0.1094452075
12
step 40
 C  1.3583478237  0.1233283211  0.0713188330
 C  0.6751495414  1.2915543656  0.1091715055
 C -0.7085381311  1.2662634037  0.0837251811
 C -1.4100049812  0.1003693159  0.0272718860
 C -0.7057867008 -1.1381572791 -0.0175571894
 C  0.6738283764 -1.1210388913 -0.0050695828
 H  2.4430170944  0.1222195533  0.1036007390
 H  1.1890556221  2.2252976763  0.2032290091
 H -1.2190705024  2.2467266449  0.0732593486
 H -2.4934033459  0.1690853089  0.0406663158
 H -1.2331703713 -2.0896980035 -0.0540637381
 H  1.3068755201 -2.0235639412 -0.1116128903
12
step 41
 C  1.3591599219  0.1258302298  0.0734626585
 C  0.6726650008  1.2928451226  0.1104190619
 C -0.7098363515  1.2676770535  0.0866237376
 C -1.4102659123  0.1040937551  0.0266572773
 C -0.7059651579 -1.1340620762 -0.0173678732
 C  0.6736120525 -1.1206138944 -0.0057349191
 H  2.4437794896  0.1279183358  0.1093539165
 H  1.1936045985  2.2235414854  0.2093877929
 H -1.2192118889  2.2478998965  0.0809753997
 H -2.4944176737  0.1647499185  0.0419227259
 H -1.2286200209 -2.0882887381 -0.0524323005
 H  1.3077192280 -2.0208625667 -0.1129738740
12
step 42
 C  1.3600447416  0.1279501206  0.0755923559
 C  0.6702330821  1.2941491312  0.1117358950
 C -0.7113229576  1.2695270003  0.0894746887
 C -1.4105142313  0.1075452336  0.0260731732
 C -0.7061539095 -1.1298638458 -0.0171637386
 C  0.6735968694 -1.1200468909 -0.0064674181
 H  2.4442876670  0.1335222420  0.1149616268
 H  1.1986714290  2.2229722683  0.2152385127
 H -1.2190470390  2.2466263010  0.0890979035
 H -2.4951068675  0.1593392880  0.0428689806
 H -1.2242709670 -2.0860679413 -0.0509723989
 H  1.3061517901 -2.0167973554 -0.1135264045
12
step 43
 C  1.3609744221  0.1296831369  0.0777032979
 C  0.6679009581  1.2954744217  0.1131326364
 C -0.7129883096  1.2718121011  0.0922777729
 C -1.4107655979  0.1106945024  0.0255251951
 C -0.7063323863 -1.1255777867 -0.0169497650
 C  0.6737758640 -1.1192841518 -0.0072587142
 H  2.4445650267  0.1389999568  0.1204040502
 H  1.2039934050  2.2234171928  0.2207441873
 H -1.2187401424  2.2432262507  0.0975912402
 H -2.4954524516  0.1529941159  0.0435012303
 H -1.2202494971 -2.0830323238 -0.0497038801
 H  1.3023513600 -2.0117012958 -0.1132989075
12
step 44
 C  1.3619194420  0.1310299381  0.0797908618
 C  0.6657148071  1.2968357337  0.1146199415
 C -0.7148109799  1.2745058681  0.0950333374
 C -1.4110305438  0.1135169132  0.0250184011
 C -0.7064782581 -1.1212141724 -0.0167311426
 C  0.6741275093 -1.1182613232 -0.0080979378
 H  2.4446644087  0.1443156604  0.1256632528
 H  1.2092628908  2.2246082811  0.2258606575
 H -1.2185618913  2.2382543832  0.1064198624
 H -2.4954718624  0.1458654743  0.0438199444
 H -1.2166921962 -2.0792292391 -0.0486455665
 H  1.2966464115 -2.0060829557 -0.1123468722
12
step 45
 C  1.3628500425  0.1319967216  0.0818505068
 C  0.6637166491  1.2982510771  0.1162080580
 C -0.7167593330  1.2775597824  0.0977419837
 C -1.4113144853  0.1159931274  0.0245572931
 C -0.7065687752 -1.1167789523 -0.0165132899
 C  0.6746186247 -1.1169076053 -0.0089722772
 H  2.4446592342  0.1494294598  0.1307231486
 H  1.2141562334  2.2262279927  0.2305415563
 H -1.2188675973  2.2324556171  0.1155520863
 H -2.4952161976  0.1381110139  0.0438299412
 H -1.2137380704 -2.0747485190 -0.0478147752
 H  1.2894847091 -2.0005832603 -0.1107468546
12
step 46
 C  1.3637378400  0.1325952863  0.0838778759
 C  0.6619412598  1.2997381431  0.1179063442
 C -0.7187942781  1.2809091618  0.1004042910
 C -1.4116182792  0.1181096443  0.0241458592
 C -0.7065823616 -1.1122748155 -0.0163018718
 C  0.6752087935 -1.1151517680 -0.0098677690
 H  2.4446322636  0.1542978556  0.1355691668
 H  1.2183646817  2.2279566621  0.2347441166
 H -1.2200621456  2.2266944459  0.1249627225
 H -2.4947640434  0.1298912320  0.0435401777
 H -1.2115189165 -2.0697098041 -0.0472268147
 H  1.2813859875 -1.9959108688 -0.1085876421
12
step 47
 C  1.3645574962  0.1328431727  0.0858689263
 C  0.6604135853  1.3013110801  0.1197228013
 C -0.7208733606  1.2844815864  0.1030207228
 C -1.4119392354  0.1198591857  0.0237876236
 C -0.7065002774 -1.1077026194 -0.0161028153
 C  0.6758560498 -1.1129299752 -0.0107702948
 H  2.4446633187  0.1588742404  0.1401878083
 H  1.2216231209  2.2295151925  0.2384349626
 H -1.2225507805  2.2218568315  0.1346336474
 H -2.4942120545  0.1213659583  0.0429633725
 H -1.2101487291 -2.0642467027 -0.0468944690
 H  1.2728798393 -1.9927565760 -0.1059592002
12
step 48
 C  1.3652882602  0.1327635336  0.0878199642
 C  0.6591463643  1.3029782732  0.1216637700
 C -0.7229551164  1.2882075030  0.1055917225
 C -1.4122724885  0.1212403971  0.0234858177
 C -0.7063089228 -1.1030628176 -0.0159223652
 C  0.6765237840 -1.1101943917 -0.0116664215
 H  2.4448171841  0.1631085283  0.1445657118
 H  1.2237323223  2.2306975118  0.2415944931
 H -1.2266785024  2.2187317240  0.1445502654
 H -2.4936638468  0.1126917079  0.0421155272
 H -1.2097135178 -2.0584905854 -0.0468274659
 H  1.2644368505 -1.9916948691 -0.1029415098
12
step 49
 C  1.3659153005  0.1323857116  0.0897280097
 C  0.6581400415  1.3047401287  0.1237334573
 C -0.7250061539  1.2920302355  0.1081183470
 C -1.4126123481  0.1222589545  0.0232431707
 C -0.7059997630 -1.0983574617 -0.0157669827
 C  0.6771855315 -1.1069225740 -0.0125447896
 H  2.4451345348  0.1669495712  0.1486901287
 H  1.2245779018  2.2313961702  0.2442215895
 H -1.2326670049  2.2178922284  0.1546974200
 H -2.4932170393  0.1040181259  0.0410153278
 H -1.2102614957 -2.0525527653 -0.0470321393
 H  1.2564005305 -1.9930843728 -0.0995937531
12
step 50
 C  1.3664305717  0.1317448683  0.0915908085
 C  0.6573820176  1.3065886731  0.1259338872
 C -0.7270050203  1.2959146728  0.1106028557
 C -1.4129537035  0.1229269650  0.0230620638
 C -0.7055709860 -1.0935913685 -0.0156433824
 C  0.6778294719 -1.1031236000 -0.0133964776
 H  2.4456256219  0.1703451318  0.1525482690
 H  1.2241378799  2.2316125969  0.2463349604
 H -1.2405626131  2.2196012937  0.1650500690
 H -2.4929519355  0.0954864463  0.0396835408
 H -1.2117963554 -2.0465122136 -0.0475111422
 H  1.2489436735 -1.9969955330 -0.0959493635
12
step 51
 C  1.3668331775  0.1308816957  0.0934069124
 C  0.6568471321  1.3085077955  0.1282649116
 C -0.7289447055  1.2998512428  0.1130493886
 C -1.4132931218  0.1232628641  0.0229445893
 C -0.7050279105 -1.0887730882 -0.0155584988
 C  0.6784594178 -1.0988405664 -0.0142150276
 H  2.4462685378  0.1732429084  0.1561271708
 H  1.2224832593  2.2314571963  0.2479730830
 H -1.2502098309  2.2237693052  0.1755642431
 H -2.4929223560  0.0872281027  0.0381424194
 H -1.2142737003 -2.0404078668 -0.0482633721
 H  1.2420565440 -2.0031813594 -0.0920169701
12
step 52
 C  1.3671291692  0.1298419010  0.0951757155
 C  0.6564988472  1.3104744254  0.1307243779
 C -0.7308322854  1.3038543205  0.1154644081
 C -1.4136295418  0.1232913455  0.0228926174
 C -0.7043827673 -1.0839153276 -0.0155194363
 C  0.6790925435 -1.0941482538 -0.0149959551
 H  2.4470121589  0.1755919184  0.1594138474
 H  1.2197704369  2.2311380544  0.2491922827
 H -1.2612591227  2.2299759510  0.1861706658
 H -2.4931500790  0.0793637251  0.0364152049
 H -1.2176014673 -2.0342374829 -0.0492841051
 H  1.2355712329 -2.0111018333 -0.0877872746
12
step 53
 C  1.3673308007  0.1286754315  0.0968974431
 C  0.6562911125  1.3124606479  0.1333084549
 C -0.7326858477  1.3079556999  0.1178567243
 C -1.4139644998  0.1230433169  0.0229078633
 C -0.7036538672 -1.0790347705 -0.0155334008
 C  0.6797545760 -1.0891464438 -0.0157359336
 H  2.4477833499  0.1773443231  0.1623957589
 H  1.2162255822  2.2309383546  0.2500630474
 H -1.2732073257  2.2375491151  0.1967734366
 H -2.4936235853  0.0720023292  0.0345257540
 H -1.2216444830 -2.0279631868 -0.0505653556
 H  1.2292140564 -2.0199958940 -0.0832435549
12
step 54
 C  1.3674553184  0.1274354447  0.0985730940
 C  0.6561708866  1.3144367093  0.1360121056
 C -0.7345296443  1.3121951691  0.1202370693
 C -1.4143019055  0.1225558305  0.0229919497
 C -0.7028642554 -1.0741513309 -0.0156076191