24
step 0
 O -0.4800753363 -2.8350272322 -1.2207582989
 O -2.2478719191  0.7908957753  1.0963140783
 N  0.9576731599 -1.0531208097 -0.8118565258
 N -1.3561456599 -1.0238718207 -0.0642068319
 N  0.5858597897  2.0831234972  0.8192948802
 N  2.2646558834  0.9919362153 -0.2405270639
 C  0.0691141620  0.8527595720  0.3889810661
 C -1.2841790207  0.2793169621  0.5420946795
 C -0.2987994183 -1.7270183687 -0.7413322205
 C  1.0925427306  0.2250283240 -0.2387381352
 C  1.8996237032  2.0934057646  0.4071296908
 C -2.6430707036 -1.7396726006 -0.0019266602
 C  2.0884630756 -1.7030662211 -1.4897410451
 C -0.1358712033  3.1379918321  1.5553050386
 H  2.5489884780  2.9385599038  0.6090446824
 H -3.3481602922 -1.1070901267  0.5329282198
 H -2.5345582082 -2.6886206422  0.5248292235
 H -3.0244781393 -1.9417870839 -1.0036902987
 H  2.9270377000 -1.8314615303 -0.8036539472
 H  2.4222189708 -1.1093261327 -2.3422910624
 H  1.7492877877 -2.6776344068 -1.8364065121
 H -0.1543905288  4.0614529050  0.9743274860
 H  0.3465590761  3.3282302552  2.5152923657
 H -1.1554240861  2.7930959784  1.7223871952
24
step 1
 O -0.4779261375 -2.8355209088 -1.2199527545
 O -2.2485609371  0.7955049159  1.1011192140
 N  0.9603892997 -1.0535914653 -0.8120035253
 N -1.3526876672 -1.0275098981 -0.0622473061
 N  0.5831817136  2.0848450463  0.8175439380
 N  2.2621991779  0.9937725221 -0.2419691454
 C  0.0702480138  0.8504962194  0.3875104800
 C -1.2818912435  0.2771633012  0.5413699984
 C -0.3022229391 -1.7262454482 -0.7416634762
 C  1.0934253120  0.2193905604 -0.2403372700
 C  1.9010227625  2.0920416084  0.4041472977
 C -2.6424937127 -1.7420620691 -0.0014864111
 C  2.0919828248 -1.7049831847 -1.4895696438
 C -0.1394933042  3.1372583581  1.5535555849
 H  2.5494350730  2.9364659814  0.6172698260
 H -3.3425494452 -1.1133631308  0.5318012277
 H -2.5323554472 -2.6917059122  0.5259067113
 H -3.0274293287 -1.9349681268 -1.0174577818
 H  2.9244092487 -1.8147022900 -0.7921330485
 H  2.4267789160 -1.1114470987 -2.3458083847
 H  1.7369031507 -2.6862081970 -1.8411125786
 H -0.1624252286  4.0592956811  0.9749216424
 H  0.3489201658  3.3350250478  2.5133872513
 H -1.1498602663  2.7991484973  1.7300081582
24
step 2
 O -0.4757853768 -2.8360157945 -1.2191518772
 O -2.2491664191  0.8000535015  1.1058649295
 N  0.9630669395 -1.0540982172 -0.8121706069
 N -1.3492821296 -1.0311242444 -0.0602674343
 N  0.5805330896  2.0865287658  0.8157719411
 N  2.2597732955  0.9955678076 -0.2434301253
 C  0.0713807174  0.8482373696  0.3860415340
 C -1.2797044635  0.2750785535  0.5407132606
 C -0.3055652312 -1.7254858348 -0.7420108338
 C  1.0942958761  0.2138458447 -0.2419003294
 C  1.9023650898  2.0907250278  0.4012112372
 C -2.6419014813 -1.7444906517 -0.0011723488
 C  2.0954438721 -1.7069501467 -1.4894376134
 C -0.1430106021  3.1365634096  1.5518488990
 H  2.5498811217  2.9342740375  0.6253433941
 H -3.3374016207 -1.1191858228  0.5310524843
 H -2.5302297139 -2.6947524260  0.5267790761
 H -3.0299203765 -1.9280974493 -1.0299114190
 H  2.9218536532 -1.7983476488 -0.7808637667
 H  2.4312302389 -1.1137255302 -2.3490780250
 H  1.7252754014 -2.6937022907 -1.8452331455
 H -0.1704578378  4.0573371522  0.9753145305
 H  0.3511175521  3.3416870610  2.5111210919
 H -1.1452612543  2.8047369945  1.7377086374
24
step 3
 O -0.4736594244 -2.8365135395 -1.2183593038
 O -2.2496126080  0.8044887361  1.1105003290
 N  0.9656710262 -1.0546770174 -0.8123779105
 N -1.3459776531 -1.0346942135 -0.0582449004
 N  0.5779393700  2.0881395512  0.8139574521
 N  2.2574062897  0.9972831642 -0.2449300787
 C  0.0725110689  0.8459852668  0.3845750168
 C -1.2777084456  0.2731249569  0.5401856371
 C -0.3087498424 -1.7247530499 -0.7423918977
 C  1.0951442730  0.2084806625 -0.2433934631
 C  1.9035975211  2.0895018582  0.3983646529
 C -2.6412765138 -1.7469909943 -0.0010909085
 C  2.0987980034 -1.7090053654 -1.4893738851
 C -0.1463318271  3.1359426421  1.5502203028
 H  2.5503277351  2.9318878487  0.6331214688
 H -3.3331259844 -1.1241598137  0.5310207124
 H -2.5282508181 -2.6977337360  0.5272583710
 H -3.0315716816 -1.9211648233 -1.0399529077
 H  2.9194175249 -1.7827640691 -0.7701027228
 H  2.4354795174 -1.1163030613 -2.3518822061
 H  1.7150773039 -2.6992425792 -1.8482680112
 H -0.1784952021  4.0557501901  0.9753223410
 H  0.3530132907  3.3480980397  2.5081814417
 H -1.1424863336  2.8094433731  1.7455766543
24
step 4
 O -0.4715543311 -2.8370157172 -1.2175786098
 O -2.2498325723  0.8087626867  1.1149796652
 N  0.9681685655 -1.0553620218 -0.8126450261
 N -1.3428210097 -1.0381992367 -0.0561579070
 N  0.5754242617  2.0896442659  0.8120804720
 N  2.2551249588  0.9988811065 -0.2464882646
 C  0.0736359806  0.8437425283  0.3831125136
 C -1.2759807969  0.2713580526  0.5398414852
 C -0.3117036781 -1.7240615090 -0.7428240906
 C  1.0959617278  0.2033775327 -0.2447850595
 C  1.9046698494  2.0884150453  0.3956484015
 C -2.6406032318 -1.7495813337 -0.0013184170
 C  2.1020068915 -1.7111688550 -1.4893935854
 C -0.1493896279  3.1354262713  1.5486968893
 H  2.5507808689  2.9292277776  0.6404672327
 H -3.3300171021 -1.1279950462  0.5319561649
 H -2.5264814549 -2.7006384270  0.5271814964
 H -3.0321103611 -1.9142115449 -1.0467730792
 H  2.9171268142 -1.7682902690 -0.7601132723
 H  2.4394515607 -1.1192894454 -2.3540495442
 H  1.7068661258 -2.7022273100 -1.8498304712
 H -0.1865455364  4.0546608300  0.9747937924
 H  0.3545134357  3.3541582792  2.5043442779
 H -1.1421579774  2.8129379381  1.7536743361
24
step 5
 O -0.4694757852 -2.8375239248 -1.2168133275
 O -2.2497691709  0.8128330423  1.1192630724
 N  0.9705292619 -1.0561843821 -0.8129903464
 N -1.3398560900 -1.0416190159 -0.0539855922
 N  0.5730094044  2.0910124458  0.8101228726
 N  2.2529542801  1.0003268085 -0.2481224126
 C  0.0747500540  0.8415124654  0.3816566727
 C -1.2745854325  0.2698253667  0.5397272002
 C -0.3143583357 -1.7234260049 -0.7433240299
 C  1.0967411459  0.1986128357 -0.2460468061
 C  1.9055354499  2.0875024052  0.3930996069
 C -2.6398712670 -1.7522615981 -0.0018941978
 C  2.1050431845 -1.7134403243 -1.4894963314
 C -0.1521511276  3.1350365484  1.5472966358
 H  2.5512557996  2.9262408970  0.6472561982
 H -3.3282060253 -1.1305559041  0.5339819692
 H -2.5249754609 -2.7034751836  0.5264161971
 H -3.0313858658 -1.9073271141 -1.0499005575
 H  2.9149932900 -1.7552335499 -0.7511544894
 H  2.4430946802 -1.1227525670 -2.3554703041
 H  1.7010562503 -2.7023652665 -1.8496657467
 H -0.1946175377  4.0541305856  0.9736221774
 H  0.3555821434  3.3597947421  2.4994989331
 H -1.1445529142  2.8150160206  1.7620100466
24
step 6
 O -0.4674290455 -2.8380398724 -1.2160669032
 O -2.2493754333  0.8166635053  1.1233169409
 N  0.9727261418 -1.0571711103 -0.8134304398
 N -1.3371230197 -1.0449338454 -0.0517084039
 N  0.5707141467  2.0922168654  0.8080687031
 N  2.2509168736  1.0015892742 -0.2498480897
 C  0.0758454132  0.8392996391  0.3802115514
 C -1.2735720900  0.2685657957  0.5398806379
 C -0.3166514204 -1.7228613665 -0.7439071538
 C  1.0974775288  0.1942548858 -0.2471546004
 C  1.9061517634  2.0867947659  0.3907504575
 C -2.6390773052 -1.7550120531 -0.0028173631
 C  2.1078906138 -1.7157988812 -1.4896662298
 C -0.1546229833  3.1347864168  1.5460283310
 H  2.5517795938  2.9229080279  0.6533808595
 H -3.3276375335 -1.1318835385  0.5370747997
 H -2.5237765085 -2.7062752280  0.5248644291
 H -3.0293763190 -1.9006416030 -1.0492239736
 H  2.9130244016 -1.7438665381 -0.7434663868
 H  2.4463836902 -1.1267124682 -2.3561059770
 H  1.6979028311 -2.6996891490 -1.8476588672
 H -0.2027194273  4.0541460122  0.9717528000
 H  0.3562487107  3.3649666160  2.4936591192
 H -1.1495501650  2.8156149774  1.7705190504
24
step 7
 O -0.4654191041 -2.8385655411 -1.2153428617
 O -2.2486148336  0.8202240309  1.1271140896
 N  0.9747357555 -1.0583439308 -0.8139793681
 N -1.3346571525 -1.0481246795 -0.0493086510
 N  0.5685551553  2.0932341781  0.8059047603
 N  2.2490326614  1.0026424563 -0.2516778893
 C  0.0769114020  0.8371096111  0.3787824627
 C -1.2729755088  0.2676085766  0.5403304529
 C -0.3185274179 -1.7223813478 -0.7445865029
 C  1.0981675587  0.1903621460 -0.2480893778
 C  1.9064811726  2.0863143227  0.3886268933
 C -2.6382242524 -1.7577946692 -0.0040469033
 C  2.1105433643 -1.7182035599 -1.4898730617
 C -0.1568494995  3.1346797505  1.5448918045
 H  2.5523924629  2.9192483385  0.6587538902
 H -3.3280801273 -1.1321890754  0.5410691304
 H -2.5229178780 -2.7090915172  0.5224637674
 H -3.0261893064 -1.8943168467 -1.0449959491
 H  2.9112345932 -1.7344245355 -0.7372546844
 H  2.4493203788 -1.1311400974 -2.3559916677
 H  1.6974944151 -2.6945525121 -1.8438359112
 H -0.2108572618  4.0546181527  0.9691851061
 H  0.3566065029  3.3696674358  2.4869616299
 H -1.1566531834  2.8148073629  1.7790584112
24
step 8
 O -0.4634506629 -2.8391032611 -1.2146447614
 O -2.2474611039  0.8234908317  1.1306337522
 N  0.9765386339 -1.0597183922 -0.8146481625
 N -1.3324884242 -1.0511735444 -0.0467708583
 N  0.5665461615  2.0940453358  0.8036208483
 N  2.2473184797  1.0034661528 -0.2536209345
 C  0.0779347213  0.8349493925  0.3773761651
 C -1.2728158816  0.2669733104  0.5410960974
 C -0.3199387897 -1.7219983371 -0.7453723805
 C  1.0988098270  0.1869818373 -0.2488377205
 C  1.9064915714  2.0860737768  0.3867478676
 C -2.6373184797 -1.7605572114 -0.0055049214
 C  2.1130051844 -1.7205948347 -1.4900746098
 C -0.1589045091  3.1347126756  1.5438782277
 H  2.5531456278  2.9153188989  0.6633102455
 H -3.3291653144 -1.1318193610  0.5456846901
 H -2.5224221637 -2.7119952555  0.5191863016
 H -3.0220575721 -1.8885354908 -1.0378216445
 H  2.9096566181 -1.7271012826 -0.7326741527
 H  2.4519318447 -1.1359600111 -2.3552330500
 H  1.6997523291 -2.6876134850 -1.8383584427
 H -0.2190339220  4.0553905999  0.9659691973
 H  0.3568049695  3.3739242601  2.4796508960
 H -1.1650770674  2.8127736257  1.7874200069
24
step 9
 O -0.4615281720 -2.8396557969 -1.2139762029
 O -2.2458979997  0.8264463414  1.1338615074
 N  0.9781195781 -1.0613031798 -0.8154443809
 N -1.3306407435 -1.0540638946 -0.0440821400
 N  0.5646976219  2.0946359648  0.8012100772
 N  2.2457878020  1.0040467087 -0.2556824415
 C  0.0788996262  0.8328275634  0.3760008402
 C -1.2730992525  0.2666699267  0.5421878444
 C -0.3208468601 -1.7217228710 -0.7462718038
 C  1.0994047439  0.1841488353 -0.2493922913
 C  1.9061571210  2.0860760223  0.3851248154
 C -2.6363658080 -1.7632391358 -0.0070828275
 C  2.1152880448 -1.7228972519 -1.4902199162
 C -0.1608792277  3.1348755440  1.5429707492
 H  2.5540970635  2.9112105263  0.6670074988
 H -3.3304465732 -1.1312043492  0.5505696768
 H -2.5223014128 -2.7150700480  0.5150360233
 H -3.0173278418 -1.8834888762 -1.0286263733
 H  2.9083510974 -1.7220441986 -0.7298141672
 H  2.4542666127 -1.1410573237 -2.3539970150
 H  1.7044396641 -2.6798006542 -1.8315105137
 H -0.2272483159  4.0562560925  0.9621973484
 H  0.3570344832  3.3777932906  2.4720516444
 H -1.1738756673  2.8097627672  1.7953564937
24
step 10
 O -0.4596558614 -2.8402264104 -1.2133408221
 O -2.2439190132  0.8290791524  1.1367891884
 N  0.9794678809 -1.0630996999 -0.8163718044
 N -1.3291314973 -1.0567809731 -0.0412325007
 N  0.5630163779  2.0949966301  0.7986690827
 N  2.2444505340  1.0043774322 -0.2578634630
 C  0.0797882654  0.8307542956  0.3746659902
 C -1.2738180440  0.2666987825  0.5436069109
 C -0.3212225375 -1.7215632288 -0.7472880421
 C  1.0999544036  0.1818849497 -0.2497520554
 C  1.9054590416  2.0863144728  0.3837614630
 C -2.6353678618 -1.7657783425 -0.0086506778
 C  2.1174101131 -1.7250240403 -1.4902535787
 C -0.1628688996  3.1351549354  1.5421458764
 H  2.5553050302  2.9070400178  0.6698244808
 H -3.3314647121 -1.1307977181  0.5553505416
 H -2.5225573490 -2.7184046154  0.5100450558
 H -3.0124383946 -1.8793630362 -1.0185915424
 H  2.9074131297 -1.7193492624 -0.7286877614
 H  2.4563887474 -1.1462884042 -2.3524967924
 H  1.7111840995 -2.6722516950 -1.8236748680
 H -0.2354952575  4.0569791182  0.9579916046
 H  0.3575051063  3.3813521164  2.4645308555
 H -1.1820763058  2.8060506900  1.8026132617
24
step 11
 O -0.4578377727 -2.8408189018 -1.2127422785
 O -2.2415271245  0.8313839680  1.1394148124
 N  0.9805775185 -1.0651019255 -0.8174302821
 N -1.3279711785 -1.0593121507 -0.0382150702
 N  0.5615053653  2.0951229960  0.7959981671
 N  2.2433129323  1.0044587423 -0.2601608069
 C  0.0805811256  0.8287412575  0.3733822615
 C -1.2749516187  0.2670509043  0.5453456726
 C -0.3210468535 -1.7215251919 -0.7484202713
 C  1.1004623792  0.1801985834 -0.2499222945
 C  1.9043864007  2.0867739561  0.3826539701
 C -2.6343202333 -1.7681178854 -0.0100699981
 C  2.1193926881 -1.7268846436 -1.4901211665
 C -0.1649604927  3.1355353248  1.5413758369
 H  2.5568198786  2.9029394450  0.6717582734
 H -3.3318081548 -1.1310209993  0.5596798271
 H -2.5231814792 -2.7220849638  0.5042692325
 H -3.0078804338 -1.8763225798 -1.0090468008
 H  2.9069749679 -1.7190562734 -0.7292256496
 H  2.4583702794 -1.1514945560 -2.3509724710
 H  1.7195195245 -2.6662137042 -1.8152950574
 H -0.2437661253  4.0573214905  0.9534890416
 H  0.3584208659  3.3846890366  2.4574521080
 H -1.1887972277  2.8019034361  1.8089592359
24
step 12
 O -0.4560777513 -2.8414375967 -1.2121842378
 O -2.2387345504  0.8333615996  1.1417425426
 N  0.9814472894 -1.0672964954 -0.8186157198
 N -1.3271630875 -1.0616471974 -0.0350262300
 N  0.5601634039  2.0950158552  0.7932013358
 N  2.2423776617  1.0042980604 -0.2625671090
 C  0.0812574891  0.8268014261  0.3721611759
 C -1.2764667920  0.2677082108  0.5473878518
 C -0.3203114032 -1.7216119334 -0.7496633339
 C  1.1009333459  0.1790847881 -0.2499144083
 C  1.9029368385  2.0874320774  0.3817913836
 C -2.6332132215 -1.7702119614 -0.0112100379
 C  2.1212559772 -1.7283956430 -1.4897755739
 C -0.1672226933  3.1360003244  1.5406317232
 H  2.5586750224  2.8990435094  0.6728200739
 H -3.3311612492 -1.1322178352  0.5632763555
 H -2.5241551810 -2.7261867328  0.4977833878
 H -3.0041409864 -1.8744931675 -1.0013132685
 H  2.9072037996 -1.7211453955 -0.7312766467
 H  2.4602825445 -1.1565176351 -2.3496683764
 H  1.7289481375 -2.6628999226 -1.8068229685
 H -0.2520501670  4.0570676786  0.9488265359
 H  0.3599520754  3.3878905832  2.4511274784
 H -1.1933356876  2.7975487562  1.8142120101
24
step 13
 O -0.4543794526 -2.8420872881 -1.2116703373
 O -2.2355625034  0.8350189228  1.1437826206
 N  0.9820808515 -1.0696630838 -0.8199202245
 N -1.3267032151 -1.0637784471 -0.0316656513
 N  0.5589851107  2.0946809984  0.7902862316
 N  2.2416439037  1.0039093268 -0.2650711075
 C  0.0817960089  0.8249488451  0.3710148216
 C -1.2783184250  0.2686438290  0.5497087770
 C -0.3190184705 -1.7218240446 -0.7510076476
 C  1.1013727644  0.1785258394 -0.2497454807
 C  1.9011171255  2.0882609400  0.3811563748
 C -2.6320350408 -1.7720308078 -0.0119662529
 C  2.1230142674 -1.7294943646 -1.4891835946
 C -0.1696986522  3.1365336009  1.5398868698
 H  2.5608779437  2.8954769112  0.6730304819
 H -3.3293380622 -1.1346210017  0.5659553499
 H -2.5254497890 -2.7307679957  0.4906765293
 H -3.0016315830 -1.8739439219 -0.9965101733
 H  2.9082933982 -1.7255356941 -0.7346158792
 H  2.4621870660 -1.1612160858 -2.3488090411
 H  1.7390168018 -2.6633125488 -1.7986570347
 H -0.2603364195  4.0560470427  0.9441265262
 H  0.3622095157  3.3910290558  2.4457738243
 H -1.1952255631  2.7931559653  1.8182559014
24
step 14
 O -0.4527463511 -2.8427731287 -1.2112041511
 O -2.2320410177  0.8363688208  1.1455512879
 N  0.9824866826 -1.0721749364 -0.8213323565
 N -1.3265802838 -1.0657008224 -0.0281362883
 N  0.5579609359  2.0941289612  0.7872640032
 N  2.2411075559  1.0033122973 -0.2676580316
 C  0.0821753220  0.8231982911  0.3699555043
 C -1.2804499586  0.2698224218  0.5522756494
 C -0.3171809415 -1.7221597150 -0.7524392184
 C  1.1017865046  0.1784922003 -0.2494376599
 C  1.8989435166  2.0892289746  0.3807261297
 C -2.6307762660 -1.7735642289 -0.0122778160
 C  2.1246718981 -1.7301525986 -1.4883313880
 C -0.1724014660  3.1371195479  1.5391196595
 H  2.5634024960  2.8923431586  0.6724148359
 H -3.3263019650 -1.1383323547  0.5676478021
 H -2.5270268734 -2.7358624757  0.4830469038
 H -3.0006163585 -1.8746727423 -0.9953620019
 H  2.9104485520 -1.7320861786 -0.7389617221
 H  2.4641268991 -1.1654797165 -2.3485759784
 H  1.7493908134 -2.6680634686 -1.7910839740
 H -0.2686158806  4.0541509593  0.9394851762
 H  0.3652246411  3.3941523095  2.4414811470
 H -1.1942690785  2.7888227536  1.8210532631
24
step 15
 O -0.4511817352 -2.8435004609 -1.2107891379
 O -2.2282087702  0.8374301012  1.1470706773
 N  0.9826779845 -1.0747995239 -0.8228374683
 N -1.3267759575 -1.0674117823 -0.0244443235
 N  0.5570773226  2.0933746985  0.7841491139
 N  2.2407614954  1.0025316867 -0.2703100707
 C  0.0823747138  0.8215648613  0.3689953481
 C -1.2827940487  0.2712005869  0.5550478766
 C -0.3148220532 -1.7226151110 -0.7539398360
 C  1.1021804515  0.1789438046 -0.2490173925
 C  1.8964418254  2.0903026550  0.3804732866
 C -2.6294336416 -1.7748234870 -0.0121395387
 C  2.1262219283 -1.7303864382 -1.4872271976
 C -0.1753123097  3.1377437506  1.5383150643
 H  2.5661837083  2.8897162849  0.6709994512
 H -3.3221721139 -1.1433150354  0.5684090789
 H -2.5288388771 -2.7414731547  0.4749969293
 H -3.0011600673 -1.8765980649 -0.9980608691
 H  2.9138617510 -1.7405993509 -0.7440014758
 H  2.4661194136 -1.1692415784 -2.3490876826
 H  1.7599018705 -2.6772420437 -1.7842410362
 H -0.2768836261  4.0513435676  0.9349638537
 H  0.3689397205  3.3972779108  2.4381992551
 H -1.1905478717  2.7845674746  1.8226500873
24
step 16
 O -0.4496886835 -2.8442745855 -1.2104285642
 O -2.2241128041  0.8382273365  1.1483686303
 N  0.9826725239 -1.0774993126 -0.8244181299
 N -1.3272652370 -1.0689112239 -0.0205990635
 N  0.5563169980  2.0924371880  0.7809590799
 N  2.2405958845  1.0015962012 -0.2730069146
 C  0.0823748466  0.8200635034  0.3681458518
 C -1.2852734274  0.2727273881  0.5579775484
 C -0.3119749683 -1.7231849442 -0.7554874592
 C  1.1025601239  0.1798316136 -0.2485145377
 C  1.8936471063  2.0914479555  0.3803668501
 C -2.6280116333 -1.7758412818 -0.0116041745
 C  2.1276488206 -1.7302585467 -1.4859001641
 C -0.1783812206  3.1383932211  1.5374645794
 H  2.5691161332  2.8876366326  0.6688093354
 H -3.3172172560 -1.1493978056  0.5684164090
 H -2.5308301858 -2.7475666368  0.4666281788
 H -3.0031142048 -1.8795599391 -1.0042318359
 H  2.9186832709 -1.7508267117 -0.7494239555
 H  2.4681514647 -1.1724854538 -2.3503852607
 H  1.7705522620 -2.6903757694 -1.7781116567
 H -0.2851405973  4.0476654946  0.9305845186
 H  0.3732102424  3.4003929116  2.4357454903
 H -1.1844160776  2.7803263575  1.8231764098
24
step 17
 O -0.4482700177 -2.8451004889 -1.2101254090
 O -2.2198080397  0.8387905764  1.1494783872
 N  0.9824924004 -1.0802326547 -0.8260546367
 N -1.3280170436 -1.0702013678 -0.0166127802
 N  0.5556593930  2.0913389622  0.7777141225
 N  2.2405985005  1.0005375045 -0.2757263479
 C  0.0821585522  0.8187084954  0.3674174038
 C -1.2878021138  0.2743450871  0.5610101416
 C -0.3086821599 -1.7238631724 -0.7570567735
 C  1.1029303251  0.1810993859 -0.2479613954
 C  1.8906028710  2.0926314453  0.3803730241
 C -2.6265213343 -1.7766696025 -0.0107739754
 C  2.1289348596 -1.7298716169 -1.4843953269
 C -0.1815306547  3.1390563440  1.5365646909
 H  2.5720564062  2.8861112683  0.6658676591
 H -3.3118359881 -1.1562923455  0.5679542270
 H -2.5329385324 -2.7540693177  0.4580369836
 H -3.0061464785 -1.8833311436 -1.0130141215
 H  2.9249883168 -1.7624752818 -0.7549546840
 H  2.4701777606 -1.1752478754 -2.3524257909
 H  1.7814741224 -2.7065003246 -1.7725552735
 H -0.2933948202  4.0432304001  0.9263293357
 H  0.3778195803  3.4034592115  2.4338318817
 H -1.1764743344  2.7759564963  1.8228409769
24
step 18
 O -0.4469282275 -2.8459825575 -1.2098822605
 O -2.2153564424  0.8391548615  1.1504380844
 N  0.9821637286 -1.0829548054 -0.8277256002
 N -1.3289949667 -1.0712866496 -0.0125004868
 N  0.5550811890  2.0901055666  0.7744367180
 N  2.2407550811  0.9993891607 -0.2784448858
 C  0.0817116714  0.8175128890  0.3668187674
 C -1.2902871070  0.2759901559  0.5640855468
 C -0.3049945819 -1.7246437481 -0.7586198764
 C  1.1032948299  0.1826855940 -0.2473916804
 C  1.8873598058  2.0938209845  0.3804559417
 C -2.6249778251 -1.7773754064 -0.0097840186
 C  2.1300683111 -1.7293550897 -1.4827662543
 C -0.1846619854  3.1397224268  1.5356144415
 H  2.5748301210  2.8851188862  0.6621968963
 H -3.3065218080 -1.1636247698  0.5673861396
 H -2.5350964767 -2.7608669344  0.4493114964
 H -3.0098025472 -1.8876362728 -1.0232280016
 H  2.9327474928 -1.7752141729 -0.7603871286
 H  2.4721229275 -1.1776142149 -2.3550847933
 H  1.7928607894 -2.7243156395 -1.7673591020
 H -0.3016618586  4.0382145293  0.9221446108
 H  0.3825035819  3.4064232622  2.4321062563
 H -1.1675204994  2.7712468372  1.8219186361
24
step 19
 O -0.4456653248 -2.8469242379 -1.2097012229
 O -2.2108257293  0.8393594240  1.1512899589
 N  0.9817163631 -1.0856190445 -0.8294086292
 N -1.3301582160 -1.0721736733 -0.0082796547
 N  0.5545571149  2.0887648825  0.7711510393
 N  2.2410496523  0.9981854986 -0.2811384384
 C  0.0810239121  0.8164882554  0.3663566232
 C -1.2926308562  0.2775948724  0.5671396946
 C -0.3009707086 -1.7255216899 -0.7601471474
 C  1.1036563850  0.1845254794 -0.2468395736
 C  1.8839738383  2.0949861358  0.3805783686
 C -2.6233979154 -1.7780343979 -0.0087819032
 C  2.1310506564 -1.7288492972 -1.4810674265
 C -0.1876649983  3.1403806879  1.5346128566
 H  2.5772419863  2.8846181195  0.6578212469
 H -3.3018120427 -1.1709812699  0.5671131650
 H -2.5372325376 -2.7678088021  0.4405312333
 H -3.0135794721 -1.8921748908 -1.0335730448
 H  2.9418080921 -1.7886807610 -0.7656024811
 H  2.4738873842 -1.1797089579 -2.3581680629
 H  1.8048945605 -2.7423789583 -1.7622941507
 H -0.3099639634  4.0328397571  0.9179491232
 H  0.3869808755  3.4092278491  2.4301997734
 H -1.1584724128  2.7659403412  1.8207283254
24
step 20
 O -0.4444828194 -2.8479279863 -1.2095838363
 O -2.2062875842  0.8394467193  1.1520793363
 N  0.9811831162 -1.0881779204 -0.8310809781
 N -1.3314624075 -1.0728710448 -0.0039698368
 N  0.5540604603  2.0873465663  0.7678823320
 N  2.2414649678  0.9969608085 -0.2837829485
 C  0.0800896678  0.8156435578  0.3660349408
 C -1.2947337753  0.2790886177  0.5701060145
 C -0.2966750715 -1.7264928706 -0.7616077873
 C  1.1040159227  0.1865529306 -0.2463385202
 C  1.8805043501  2.0960980358  0.3807021443
 C -2.6217993608 -1.7787232389 -0.0079082939
 C  2.1319006398 -1.7284906602 -1.4793478978
 C -0.1904300243  3.1410186963  1.5335569989
 H  2.5790901666  2.8845589848  0.6527696321
 H -3.2982233103 -1.1779662318  0.5675206888
 H -2.5392723722 -2.7747179225  0.4317682104
 H -3.0169929189 -1.8966440902 -1.0428077860
 H  2.9518924039 -1.8024868199 -0.7705743426
 H  2.4753560876 -1.1816824834 -2.3614313586
 H  1.8176914346 -2.7592872500 -1.7571612257
 H -0.3183292367  4.0273517378  0.9136455993
 H  0.3909854713  3.4118249423  2.4277736301
 H -1.1502622126  2.7597681627  1.8196023094
24
step 21
 O -0.4433816366 -2.8489951073 -1.2095310376
 O -2.2018153234  0.8394610100  1.1528531972
 N  0.9805991604 -1.0905845222 -0.8327202499
 N -1.3328605621 -1.0733893047  0.0004077016
 N  0.5535638662  2.0858813347  0.7646562652
 N  2.2419828715  0.9957484617 -0.2863549614
 C  0.0789088156  0.8149847092  0.3658545219
 C -1.2964977912  0.2804000008  0.5729177265
 C -0.2921767541 -1.7275543831 -0.7629705052
 C  1.1043723368  0.1887024225 -0.2459202763
 C  1.8770119120  2.0971292063  0.3807886747
 C -2.6202021995 -1.7795113924 -0.0072809368
 C  2.1326545766 -1.7284003972 -1.4776473296
 C -0.1928616018  3.1416201898  1.5324409298
 H  2.5801808089  2.8848947025  0.6470786653
 H -3.2961805536 -1.1842639895  0.5689202166
 H -2.5411393355 -2.7814054659  0.4230906043
 H -3.0196272862 -1.9007580345 -1.0498846190
 H  2.9626153746 -1.8162256221 -0.7753555201
 H  2.4764095393 -1.1836949519 -2.3646056083
 H  1.8312684200 -2.7738197999 -1.7518211849
 H -0.3267889517  4.0219944433  0.9091354537
 H  0.3942962902  3.4141865373  2.4245591253
 H -1.1437106831  2.7524959975  1.8188471245
24
step 22
 O -0.4423619383 -2.8501255286 -1.2095431326
 O -2.1974811274  0.8394465443  1.1536583768
 N  0.9800016446 -1.0927936793 -0.8343050820
 N -1.3343042253 -1.0737409906  0.0048303303
 N  0.5530404744  2.0844001226  0.7614982411
 N  2.2425846158  0.9945799323 -0.2888321901
 C  0.0774873652  0.8145148475  0.3658127851
 C -1.2978307883  0.2814598683  0.5755108889
 C -0.2875480539 -1.7287054448 -0.7642044238
 C  1.1047229109  0.1909108480 -0.2456142565
 C  1.8735555102  2.0980535515  0.3807996575
 C -2.6186312888 -1.7804538468 -0.0069832599
 C  2.1333634338 -1.7286770448 -1.4759943362
 C -0.1948916278  3.1421626295  1.5312554644
 H  2.5803410606  2.8855919300  0.6407950375
 H -3.2959519531 -1.1896923945  0.5714962850
 H -2.5427546455 -2.7876877499  0.4145679260
 H -3.0211675012 -1.9042631890 -1.0540361613
 H  2.9735192571 -1.8294809693 -0.7800503546
 H  2.4769357944 -1.1858993184 -2.3674246027
 H  1.8455312904 -2.7850344787 -1.7462102258
 H -0.3353730827  4.0169835684  0.9043354237
 H  0.3967606333  3.4163123841  2.4203873413
 H -1.1394020387  2.7439762772  1.8187023384
24
step 23
 O -0.4414231349 -2.8513178485 -1.2096197979
 O -2.1933529689  0.8394456261  1.1545395988
 N  0.9794288451 -1.0947631581 -0.8358157004
 N -1.3357443528 -1.0739405905  0.0092744003
 N  0.5524646069  2.0829334465  0.7584328023
 N  2.2432512314  0.9934842518 -0.2911939240
 C  0.0758379845  0.8142338364  0.3659034288
 C -1.2986508336  0.2822038447  0.5778271001
 C -0.2828627713 -1.7299469824 -0.7652794995
 C  1.1050629675  0.1931189906 -0.2454467346
 C  1.8701905491  2.0988461076  0.3806975719
 C -2.6171179653 -1.7815856951 -0.0070577792
 C  2.1340876294 -1.7293916866 -1.4744062702
 C -0.1964893219  3.1426154331  1.5299883390
 H  2.5794317239  2.8866398250  0.6339767647
 H -3.2976051110 -1.1942369212  0.5752708358
 H -2.5440381770 -2.7934038945  0.4062750678
 H -3.0214171437 -1.9069488792 -1.0548221412
 H  2.9841188905 -1.8418385944 -0.7847810687
 H  2.4768416602 -1.1884266096 -2.3696515062
 H  1.8602779768 -2.7923252259 -1.7403443807
 H -0.3441061819  4.0124824543  0.8991931434
 H  0.3983106769  3.4182352847  2.4152070912
 H -1.1375883328  2.7341929910  1.8193077837
24
step 24
 O -0.4405638910 -2.8525693660 -1.2097600947
 O -2.1894914262  0.8394965183  1.1555373515
 N  0.9789193982 -1.0964547495 -0.8372343899
 N -1.3371322463 -1.0740045893  0.0137155219
 N  0.5518125087  2.0815107629  0.7554831022
 N  2.2439638448  0.9924875137 -0.2934213586
 C  0.0739803603  0.8141381713  0.3661162799
 C -1.2988906877  0.2825752432  0.5798164835
 C -0.2781946040 -1.7312814043 -0.7661669772
 C  1.1053858608  0.1952727756 -0.2454402771
 C  1.8669669734  2.0994830396  0.3804462933
 C -2.6156997742 -1.7829197052 -0.0075038460
 C  2.1348910243 -1.7305850974 -1.4728899412
 C -0.1976655713  3.1429395987  1.5286242046
 H  2.5773563897  2.8880557045  0.6266931465
 H -3.3009953893 -1.1980549338  0.5800942919
 H -2.5449095776 -2.7984311013  0.3982951810
 H -3.0203072379 -1.9086543786 -1.0521500171
 H  2.9939499659 -1.8528995231 -0.7896535710
 H  2.4760624144 -1.1913735956 -2.3711020067
 H  1.8752098569 -2.7954523434 -1.7343177036
 H -0.3530026964  4.0085832860  0.8937001751
 H  0.3989707191  3.4200225995  2.4090902691
 H -1.1381502658  2.7232870558  1.8206869756
24
step 25
 O -0.4397821655 -2.8538761488 -1.2099624903
 O -2.1859466282  0.8396313856  1.1566858079
 N  0.9785114788 -1.0978352472 -0.8385458571
 N -1.3384204657 -1.0739515624  0.0181288022
 N  0.5510630004  2.0801598778  0.7526704470
 N  2.2447039638  0.9916125051 -0.2954978454
 C  0.0719413479  0.8142210018  0.3664372634
 C -1.2985020572  0.2825279098  0.5814405432
 C -0.2736155919 -1.7327122366 -0.7668397672
 C  1.1056830646  0.1973242580 -0.2456133228
 C  1.8639278033  2.0999418820  0.3800117627
 C -2.6144176002 -1.7844470186 -0.0082791136
 C  2.1358350869 -1.7322660156 -1.4714426795
 C -0.1984705574  3.1430892823  1.5271442939
 H  2.5740666903  2.8898869026  0.6190233367
 H -3.3057895412 -1.2014492829  0.5856659661
 H -2.5452899997 -2.8026958285  0.3907203020
 H -3.0178994551 -1.9092732437 -1.0462786790
 H  3.0026135278 -1.8622944404 -0.7947284244
 H  2.4745692020 -1.1947937298 -2.3716623673
 H  1.8899471088 -2.7945551127 -1.7282970755
 H -0.3620628039  4.0052964498  0.8879000301
 H  0.3988545900  3.4217739906  2.4022243410
 H -1.1406261442  2.7115530705  1.8227516211
24
step 26
 O -0.4390752775 -2.8552331316 -1.2102248817
 O -2.1827556121  0.8398744679  1.1580109853
 N  0.9782419144 -1.0988773014 -0.8397374866
 N -1.3395637115 -1.0738023030  0.0224890596
 N  0.5501980345  2.0789064064  0.7500138929
 N  2.2454537354  0.9908784464 -0.2974090824
 C  0.0697548769  0.8144722593  0.3668484986
 C -1.2974591770  0.2820287611  0.5826746338
 C -0.2691946259 -1.7342436571 -0.7672727561
 C  1.1059443560  0.1992323598 -0.2459798986
 C  1.8611081444  2.1002020704  0.3793627053
 C -2.6133107074 -1.7861404463 -0.0093039953
 C  2.1369738409 -1.7344103855 -1.4700535074
 C -0.1989854222  3.1430151925  1.5255261133
 H  2.5695632156  2.8922084870  0.6110535878
 H -3.3115179464 -1.2048186434  0.5915784025
 H -2.5451044215 -2.8061797807  0.3836493152
 H -3.0143846426 -1.9087551889 -1.0378081585
 H  3.0098121420 -1.8696979383 -0.7999999457
 H  2.4723736220 -1.1986915996 -2.3713014061
 H  1.9040465247 -2.7901500402 -1.7225146080
 H -0.3712695828  4.0025498725  0.8818893784
 H  0.3981528660  3.4236152316  2.3948918481
 H -1.1442992457  2.6994075640  1.8253251247
24
step 27
 O -0.4384399922 -2.8566342421 -1.2105446210
 O -2.1799403754  0.8402406763  1.1595293472
 N  0.9781452322 -1.0995601292 -0.8407994923
 N -1.3405196587 -1.0735799523  0.0267710395
 N  0.5492031660  2.0777732712  0.7475298769
 N  2.2461961858  0.9903008217 -0.2991432625
 C  0.0674615815  0.8148788759  0.3673285284
 C -1.2957612990  0.2810597583  0.5835097810
 C -0.2649960344 -1.7358799587 -0.7674430636
 C  1.1061580923  0.2009633835 -0.2465494634
 C  1.8585346997  2.1002457851  0.3784713767
 C -2.6124110175 -1.7879594260 -0.0104685813