24
step 0
 O -0.4800753363 -2.8350272322 -1.2207582989
 O -2.2478719191  0.7908957753  1.0963140783
 N  0.9576731599 -1.0531208097 -0.8118565258
 N -1.3561456599 -1.0238718207 -0.0642068319
 N  0.5858597897  2.0831234972  0.8192948802
 N  2.2646558834  0.9919362153 -0.2405270639
 C  0.0691141620  0.8527595720  0.3889810661
 C -1.2841790207  0.2793169621  0.5420946795
 C -0.2987994183 -1.7270183687 -0.7413322205
 C  1.0925427306  0.2250283240 -0.2387381352
 C  1.8996237032  2.0934057646  0.4071296908
 C -2.6430707036 -1.7396726006 -0.0019266602
 C  2.0884630756 -1.7030662211 -1.4897410451
 C -0.1358712033  3.1379918321  1.5553050386
 H  2.5489884780  2.9385599038  0.6090446824
 H -3.3481602922 -1.1070901267  0.5329282198
 H -2.5345582082 -2.6886206422  0.5248292235
 H -3.0244781393 -1.9417870839 -1.0036902987
 H  2.9270377000 -1.8314615303 -0.8036539472
 H  2.4222189708 -1.1093261327 -2.3422910624
 H  1.7492877877 -2.6776344068 -1.8364065121
 H -0.1543905288  4.0614529050  0.9743274860
 H  0.3465590761  3.3282302552  2.5152923657
 H -1.1554240861  2.7930959784  1.7223871952
24
step 1
 O -0.4779266782 -2.8355207846 -1.2199529571
 O -2.2485607638  0.7955037563  1.1011180051
 N  0.9603886164 -1.0535913469 -0.8120034883
 N -1.3526885371 -1.0275089828 -0.0622477991
 N  0.5831823873  2.0848446132  0.8175443785
 N  2.2621997960  0.9937720601 -0.2419687826
 C  0.0702477285  0.8504967888  0.3875108499
 C -1.2818918191  0.2771638430  0.5413701807
 C -0.3022220778 -1.7262456427 -0.7416633928
 C  1.0934250899  0.2193919788 -0.2403368677
 C  1.9010224105  2.0920419516  0.4041480480
 C -2.6424938579 -1.7420614680 -0.0014865219
 C  2.0919819393 -1.7049827024 -1.4895696869
 C -0.1394923930  3.1372585426  1.5535560250
 H  2.5494349606  2.9364665082  0.6172677567
 H -3.3425508567 -1.1133615527  0.5318015112
 H -2.5323560013 -2.6917051360  0.5259064403
 H -3.0274285862 -1.9349698423 -1.0174543181
 H  2.9244099100 -1.8147065064 -0.7921359470
 H  2.4267777688 -1.1114465651 -2.3458074998
 H  1.7369062664 -2.6862060400 -1.8411113946
 H -0.1624232072  4.0592962239  0.9749214929
 H  0.3489195718  3.3350233384  2.5133877306
 H -1.1498616661  2.7991469746  1.7300062409
24
step 2
 O -0.4757864561 -2.8360155458 -1.2191522814
 O -2.2491660929  0.8000511973  1.1058625263
 N  0.9630655825 -1.0540979712 -0.8121705279
 N -1.3492838563 -1.0311224199 -0.0602684255
 N  0.5805344299  2.0865279091  0.8157728274
 N  2.2597745239  0.9955668940 -0.2434293949
 C  0.0713801472  0.8482385074  0.3860422735
 C -1.2797055898  0.2750796201  0.5407136087
 C -0.3055635290 -1.7254862202 -0.7420106627
 C  1.0942954349  0.2138486579 -0.2418995339
 C  1.9023644000  2.0907257020  0.4012127261
 C -2.6419017760 -1.7444894397 -0.0011725391
 C  2.0954421154 -1.7069491702 -1.4894376903
 C -0.1430088063  3.1365637689  1.5518497688
 H  2.5498808975  2.9342751170  0.6253392944
 H -3.3374043251 -1.1191827819  0.5310529546
 H -2.5302308033 -2.6947508829  0.5267785849
 H -3.0299190037 -1.9281008896 -1.0299048138
 H  2.9218549602 -1.7983559816 -0.7808694978
 H  2.4312279715 -1.1137244235 -2.3490763171
 H  1.7252814445 -2.6936982391 -1.8452309211
 H -0.1704537952  4.0573381876  0.9753142822
 H  0.3511164053  3.3416836758  2.5111221411
 H -1.1452638070  2.8047340667  1.7377047797
24
step 3
 O -0.4736610386 -2.8365131656 -1.2183599076
 O -2.2496121668  0.8044853148  1.1104967580
 N  0.9656690139 -1.0546766254 -0.8123777789
 N -1.3459802110 -1.0346914909 -0.0582464008
 N  0.5779413634  2.0881382890  0.8139587945
 N  2.2574081135  0.9972818196 -0.2449289705
 C  0.0725102146  0.8459869714  0.3845761251
 C -1.2777100773  0.2731265163  0.5401861201
 C -0.3087473390 -1.7247536190 -0.7423916298
 C  1.0951436180  0.2084848250 -0.2433922922
 C  1.9035965204  2.0895028390  0.3983668573
 C -2.6412769676 -1.7469891540 -0.0010911217
 C  2.0987954008 -1.7090038744 -1.4893739806
 C -0.1463291974  3.1359431571  1.5502215836
 H  2.5503274012  2.9318895335  0.6331154151
 H -3.3331297556 -1.1241555293  0.5310211840
 H -2.5282524067 -2.6977314423  0.5272577560
 H -3.0315698781 -1.9211699918 -1.0399437406
 H  2.9194194571 -1.7827763299 -0.7701111494
 H  2.4354761798 -1.1163013070 -2.3518797911
 H  1.7150859222 -2.6992370946 -1.8482650068
 H -0.1784891361  4.0557516243  0.9753220908
 H  0.3530116676  3.3480930431  2.5081832292
 H -1.1424895675  2.8094392645  1.7455708027
24
step 4
 O -0.4715564751 -2.8370152172 -1.2175794103
 O -2.2498320686  0.8087581869  1.1149749635
 N  0.9681659244 -1.0553614564 -0.8126448264
 N -1.3428243612 -1.0381956328 -0.0561599333
 N  0.5754268892  2.0896426248  0.8120822859
 N  2.2551273566  0.9988793613 -0.2464867635
 C  0.0736348440  0.8437447977  0.3831139897
 C -1.2759828720  0.2713600601  0.5398420597
 C -0.3117004312 -1.7240622497 -0.7428237117
 C  1.0959608663  0.2033829778 -0.2447835389
 C  1.9046685768  2.0884162966  0.3956512878
 C -2.6406038592 -1.7495788436 -0.0013185781
 C  2.1020034765 -1.7111668258 -1.4893936822
 C -0.1493862324  3.1354269153  1.5486985565
 H  2.5507804290  2.9292301435  0.6404593380
 H -3.3300216367 -1.1279898136  0.5319563865
 H -2.5264834921 -2.7006354019  0.5271808922
 H -3.0321083879 -1.9142184247 -1.0467621160
 H  2.9171293542 -1.7683061887 -0.7601241811
 H  2.4394472213 -1.1192869422 -2.3540465808
 H  1.7068768328 -2.7022209847 -1.8498270349
 H -0.1865374415  4.0546625378  0.9747936747
 H  0.3545114373  3.3541517621  2.5043470285
 H -1.1421612593  2.8129329551  1.7536664114
24
step 5
 O -0.4694784525 -2.8375232974 -1.2168143210
 O -2.2497686690  0.8128275120  1.1192572855
 N  0.9705260258 -1.0561836079 -0.8129900579
 N -1.3398601863 -1.0416145525 -0.0539881665
 N  0.5730126421  2.0910104595  0.8101251777
 N  2.2529572239  1.0003247028 -0.2481204984
 C  0.0747486388  0.8415152968  0.3816585146
 C -1.2745878763  0.2698277670  0.5397278129
 C -0.3143544203 -1.7234269007 -0.7433235211
 C  1.0967400868  0.1986194767 -0.2460449689
 C  1.9055339552  2.0875038801  0.3931031315
 C -2.6398720852 -1.7522584370 -0.0018942224
 C  2.1050389959 -1.7134377335 -1.4894964138
 C -0.1521470421  3.1350372890  1.5472986609
 H  2.5512552568  2.9262440370  0.6472466088
 H -3.3282109865 -1.1305500523  0.5339816579
 H -2.5249778834 -2.7034714448  0.5264157690
 H -3.0313840196 -1.9073356593 -1.0498886778
 H  2.9149964271 -1.7552527851 -0.7511675897
 H  2.4430894201 -1.1227491973 -2.3554669784
 H  1.7010684587 -2.7023587585 -1.8496622847
 H -0.1946074048  4.0541324274  0.9736223528
 H  0.3555798813  3.3597868152  2.4995029016
 H -1.1445555490  2.8150105165  1.7619999600
24
step 6
 O -0.4674322285 -2.8380391163 -1.2160680850
 O -2.2493750065  0.8166570004  1.1233101216
 N  0.9727223511 -1.0571700846 -0.8134300372
 N -1.3371278019 -1.0449285497 -0.0517115534
 N  0.5707179661  2.0922145745  0.8080715227
 N  2.2509203298  1.0015868565 -0.2498457379
 C  0.0758437254  0.8393030286  0.3802137559
 C -1.2735748181  0.2685685249  0.5398812273
 C -0.3166469270 -1.7228623956 -0.7439064916
 C  1.0974762820  0.1942626185 -0.2471524857
 C  1.9061501063  2.0867964089  0.3907545684
 C -2.6390783308 -1.7550082054 -0.0028171660
 C  2.1078856937 -1.7157957093 -1.4896662868
 C -0.1546182803  3.1347872188  1.5460306825
 H  2.5517789474  2.9229120429  0.6533697507
 H -3.3276426036 -1.1318773814  0.5370736822
 H -2.5237792431 -2.7062707860  0.5248643646
 H -3.0293749078 -1.9006517338 -1.0492121010
 H  2.9130281313 -1.7438886787 -0.7434813166
 H  2.4463775969 -1.1267081091 -2.3561024855
 H  1.6979158865 -2.6996831211 -1.8476558162
 H -0.2027072440  4.0541478538  0.9717534419
 H  0.3562462919  3.3649574018  2.4936645619
 H -1.1495515108  2.8156093125  1.7705067293
24
step 7
 O -0.4654227938 -2.8385646542 -1.2153442264
 O -2.2486145624  0.8202166139  1.1271062964
 N  0.9747314562 -1.0583426053 -0.8139788221
 N -1.3346625524 -1.0481185835 -0.0493124078
 N  0.5685595241  2.0932316288  0.8059081210
 N  2.2490365916  1.0026397821 -0.2516750722
 C  0.0769094506  0.8371135535  0.3787850254
 C -1.2729784310  0.2676115644  0.5403309511
 C -0.3185224507 -1.7223824843 -0.7445856593
 C  1.0981661345  0.1903708509 -0.2480870296
 C  1.9064794214  2.0863160718  0.3886315314
 C -2.6382254995 -1.7577901290 -0.0040464071
 C  2.1105377560 -1.7181997949 -1.4898730897
 C -0.1568442381  3.1346805781  1.5448944499
 H  2.5523917047  2.9192533265  0.6587414605
 H -3.3280850546 -1.1321828657  0.5410669823
 H -2.5229208441 -2.7090863702  0.5224642683
 H -3.0261886261 -1.8943284478 -1.0449849810
 H  2.9112389112 -1.7344491114 -0.7372710218
 H  2.4493135401 -1.1311346326 -2.3559881998
 H  1.6975076319 -2.6945475733 -1.8438337106
 H -0.2108430133  4.0546198851  0.9691863862
 H  0.3566040142  3.3696570592  2.4869687767
 H -1.1566527541  2.8148018695  1.7790438270
24
step 8
 O -0.4634548495 -2.8391022410 -1.2146463027
 O -2.2474610740  0.8234825706  1.1306250483
 N  0.9765338768 -1.0597167146 -0.8146474408
 N -1.3324943663 -1.0511666848 -0.0467752586
 N  0.5665510443  2.0940425789  0.8036247790
 N  2.2473228410  1.0034632834 -0.2536176215
 C  0.0779325188  0.8349538809  0.3773790797
 C -1.2728189036  0.2669764821  0.5410964325
 C -0.3199334648 -1.7219995508 -0.7453713247
 C  1.0988082362  0.1869913824 -0.2488351864
 C  1.9064898019  2.0860755664  0.3867529691
 C -2.6373199581 -1.7605519854 -0.0055040650
 C  2.1129989308 -1.7205904754 -1.4900746142
 C -0.1588987275  3.1347134939  1.5438811347
 H  2.5531447370  2.9153249439  0.6632967095
 H -3.3291699479 -1.1318132557  0.5456813657
 H -2.5224252751 -2.7119893855  0.5191875769
 H -3.0220578805 -1.8885484125 -1.0378123777
 H  2.9096615106 -1.7271277725 -0.7326914340
 H  2.4519243428 -1.1359533414 -2.3552297709
 H  1.6997650288 -2.6876101306 -1.8383575078
 H -0.2190175927  4.0553921572  0.9659712730
 H  0.3568024629  3.3739128388  2.4796599248
 H -1.1650746009  2.8127685831  1.7874031982
24
step 9
 O -0.4615328444 -2.8396546403 -1.2139779133
 O -2.2458983002  0.8264373084  1.1338519593
 N  0.9781144177 -1.0613010956 -0.8154434493
 N -1.3306471465 -1.0540563119 -0.0440872232
 N  0.5647029806  2.0946330546  0.8012146083
 N  2.2457925486  1.0040437088 -0.2556786009
 C  0.0788971890  0.8328325885  0.3760040984
 C -1.2731022788  0.2666732048  0.5421879413
 C -0.3208413029 -1.7217241288 -0.7462705025
 C  1.0994029970  0.1841590800 -0.2493896205
 C  1.9061554151  2.0860777860  0.3851303133
 C -2.6363675237 -1.7632332445 -0.0070815732
 C  2.1152811870 -1.7228923118 -1.4902199130
 C -0.1608729404  3.1348763207  1.5429738875
 H  2.5540960040  2.9112176876  0.6669930802
 H -3.3304508775 -1.1311983927  0.5505651251
 H -2.5223045801 -2.7150634184  0.5150382827
 H -3.0173293310 -1.8835029377 -1.0286194242
 H  2.9083565289 -1.7220720402 -0.7298319098
 H  2.4542585188 -1.1410493770 -2.3539940510
 H  1.7044512155 -2.6797992011 -1.8315112074
 H -0.2272298912  4.0562574641  0.9622003521
 H  0.3570319651  3.3777809264  2.4720626601
 H -1.1738711497  2.8097583905  1.7953375781
24
step 10
 O -0.4596610077 -2.8402251131 -1.2133426933
 O -2.2439197353  0.8290694230  1.1367788651
 N  0.9794623743 -1.0630971548 -0.8163706275
 N -1.3291382758 -1.0567727114 -0.0412383087
 N  0.5630221729  2.0949936230  0.7986742456
 N  2.2444556174  1.0043743679 -0.2578590626
 C  0.0797856144  0.8307598457  0.3746695812
 C -1.2738209795  0.2667020885  0.5436066933
 C -0.3212168808 -1.7215644953 -0.7472864607
 C  1.0999525107  0.1818957477 -0.2497492973
 C  1.9054574860  2.0863161466  0.3837672900
 C -2.6353698194 -1.7657718201 -0.0086490188
 C  2.1174026881 -1.7250185513 -1.4902535949
 C -0.1628620977  3.1351556409  1.5421492200
 H  2.5553037477  2.9070483207  0.6698094053
 H -3.3314687650 -1.1307918404  0.5553448087
 H -2.5225604814 -2.7183971703  0.5100485038
 H -3.0124411619 -1.8793780303 -1.0185872644
 H  2.9074190288 -1.7193778652 -0.7287054902
 H  2.4563801178 -1.1462791418 -2.3524942185
 H  1.7111939608 -2.6722522152 -1.8236774733
 H -0.2354747261  4.0569803553  0.9579956359
 H  0.3575025298  3.3813388874  2.4645438767
 H -1.1820699568  2.8060471295  1.8025924362
24
step 11
 O -0.4578433797 -2.8408174584 -1.2127443011
 O -2.2415283605  0.8313736201  1.1394037846
 N  0.9805717246 -1.0650988670 -0.8174288249
 N -1.3279782447 -1.0593032566 -0.0382216462
 N  0.5615115559  2.0951199498  0.7960039929
 N  2.2433183029  1.0044556791 -0.2601558159
 C  0.0805782858  0.8287473174  0.3733861721
 C -1.2749543703  0.2670541604  0.5453450640
 C -0.3210412346 -1.7215264309 -0.7484183756
 C  1.1004603493  0.1802097869 -0.2499194970
 C  1.9043850853  2.0867754811  0.3826600605
 C -2.6343224392 -1.7681107782 -0.0100679626
 C  2.1193847282 -1.7268786597 -1.4901212406
 C -0.1649531474  3.1355359330  1.5413793657
 H  2.5568183005  2.9029488752  0.6717427628
 H -3.3318121301 -1.1310150296  0.5596730459
 H -2.5231844864 -2.7220766290  0.5042740642
 H -3.0078844556 -1.8763382792 -1.0090452135
 H  2.9069812132 -1.7190850334 -0.7292429247
 H  2.4583611530 -1.1514839767 -2.3509703032
 H  1.7195272791 -2.6662159676 -1.8152997544
 H -0.2437434804  4.0573227053  0.9534941646
 H  0.3584181301  3.3846749929  2.4574670640
 H -1.1887894599  2.8019007845  1.8089367671
24
step 12
 O -0.4560838050 -2.8414360001 -1.2121864014
 O -2.2387363924  0.8333507125  1.1417308817
 N  0.9814412674 -1.0672928751 -0.8186139486
 N -1.3271703538 -1.0616377191 -0.0350336177
 N  0.5601699493  2.0950128274  0.7932078546
 N  2.2423832691  1.0042950611 -0.2625614986
 C  0.0812544904  0.8268079772  0.3721653898
 C -1.2764692702  0.2677113412  0.5473867772
 C -0.3203059611 -1.7216131089 -0.7496610913
 C  1.1009311872  0.1790962510 -0.2499116159
 C  1.9029358545  2.0874334022  0.3817976752
 C -2.6332156864 -1.7702043247 -0.0112076909
 C  2.1212475093 -1.7283892419 -1.4897757539
 C -0.1672147609  3.1360008128  1.5406354239
 H  2.5586730605  2.8990540104  0.6728043415
 H -3.3311653904 -1.1322115230  0.5632687268
 H -2.5241579756 -2.7261774184  0.4977897846
 H -3.0041461034 -1.8745093320 -1.0013140184
 H  2.9072102063 -1.7211737118 -0.7312930913
 H  2.4602729423 -1.1565057757 -2.3496665695
 H  1.7289535157 -2.6629033659 -1.8068298225
 H -0.2520254079  4.0570690372  0.9488327790
 H  0.3599490311  3.3878757463  2.4511442175
 H -1.1933270529  2.7975470602  1.8141882170
24
step 13
 O -0.4543859380 -2.8420855295 -1.2116726303
 O -2.2355650418  0.8350075762  1.1437703977
 N  0.9820746600 -1.0696588590 -0.8199181078
 N -1.3267105954 -1.0637684337 -0.0316738938
 N  0.5589919711  2.0946780453  0.7902934720
 N  2.2416496982  1.0039064497 -0.2650648526
 C  0.0817928856  0.8249558648  0.3710193197
 C -1.2783205457  0.2686467616  0.5497071638
 C -0.3190133436 -1.7218251221 -0.7510050284
 C  1.1013704838  0.1785374211 -0.2497427334
 C  1.9011165637  2.0882620220  0.3811628108
 C -2.6320377817 -1.7720227029 -0.0119636920
 C  2.1230053147 -1.7294876445 -1.4891839350
 C -0.1696900804  3.1365339509  1.5398907364
 H  2.5608754994  2.8954883866  0.6730147307
 H -3.3293426516 -1.1346140442  0.5659471185
 H -2.5254522886 -2.7307575994  0.4906846556
 H -3.0016375072 -1.8739603068 -0.9965125537
 H  2.9082997072 -1.7255629857 -0.7346312041
 H  2.4621769932 -1.1612030171 -2.3488074915
 H  1.7390196754 -2.6633162956 -1.7986660020
 H -0.2603095516  4.0560487526  0.9441338862
 H  0.3622059798  3.3910134222  2.4457921343
 H -1.1952166950  2.7931552383  1.8182311343
24
step 14
 O -0.4527532522 -2.8427711973 -1.2112065609
 O -2.2320443403  0.8363570938  1.1455385726
 N  0.9824803784 -1.0721700716 -0.8213298662
 N -1.3265876957 -1.0656903232 -0.0281454272
 N  0.5579680731  2.0941261367  0.7872719909
 N  2.2411134887  1.0033095942 -0.2676511111
 C  0.0821721132  0.8232057527  0.3699602646
 C -1.2804516445  0.2698250899  0.5522734293
 C -0.3171762648 -1.7221606626 -0.7524361976
 C  1.1017841077  0.1785037686 -0.2494349916
 C  1.8989434652  2.0892297815  0.3807326600
 C -2.6307793053 -1.7735557191 -0.0122751608
 C  2.1246624835 -1.7301456713 -1.4883319452
 C -0.1723922005  3.1371197448  1.5391236922
 H  2.5633994691  2.8923554774  0.6723992575
 H -3.3263072907 -1.1383244260  0.5676392287
 H -2.5270290032 -2.7358508876  0.4830569039
 H -3.0006227070 -1.8746891083 -0.9953650459
 H  2.9104544244 -1.7321119012 -0.7389757440
 H  2.4641163486 -1.1654655361 -2.3485745336
 H  1.7493911614 -2.6680664154 -1.7910949280
 H -0.2685869147  4.0541532537  0.9394936249
 H  0.3652204169  3.3941358584  2.4415007844
 H -1.1942606352  2.7888229901  1.8210278809
24
step 15
 O -0.4511890350 -2.8434983437 -1.2107916505
 O -2.2282129604  0.8374180708  1.1470575367
 N  0.9826716213 -1.0747939923 -0.8228345804
 N -1.3267833240 -1.0674008457 -0.0244543977
 N  0.5570847010  2.0933720533  0.7841578713
 N  2.2407675197  1.0025292022 -0.2703024689
 C  0.0823714629  0.8215727336  0.3690003455
 C -1.2827952318  0.2712029308  0.5550449871
 C -0.3148179560 -1.7226159002 -0.7539363942
 C  1.1021779427  0.1789552386 -0.2490148298
 C  1.8964423674  2.0903031649  0.3804798687
 C -2.6294370044 -1.7748146337 -0.0121369153
 C  2.1262120794 -1.7303794165 -1.4872280240
 C -0.1753023014  3.1377437833  1.5383192681
 H  2.5661800082  2.8897292915  0.6709842276
 H -3.3221784360 -1.1433058172  0.5684004106
 H -2.5288405726 -2.7414602631  0.4750089253
 H -3.0011664195 -1.8766141878 -0.9980635044
 H  2.9138667708 -1.7406230110 -0.7440141246
 H  2.4661083716 -1.1692264007 -2.3490861559
 H  1.7598997202 -2.6772430053 -1.7842538088
 H -0.2768525762  4.0513466867  0.9349733468
 H  0.3689346228  3.3972606147  2.4382199799
 H -1.1905404814  2.7845686646  1.8226244333
24
step 16
 O -0.4496963639 -2.8442722675 -1.2104311647
 O -2.2241179389  0.8382150765  1.1483551278
 N  0.9826661512 -1.0774930972 -0.8244148252
 N -1.3272724882 -1.0688998972 -0.0206101085
 N  0.5563245854  2.0924347686  0.7809686255
 N  2.2406019560  1.0015939713 -0.2729986214
 C  0.0823716012  0.8200717510  0.3681510586
 C -1.2852740509  0.2727293571  0.5579739347
 C -0.3119715714 -1.7231855503 -0.7554835841
 C  1.1025575064  0.1798428060 -0.2485120996
 C  1.8936483175  2.0914481567  0.3803734499
 C -2.6280153442 -1.7758321404 -0.0116016975
 C  2.1276385724 -1.7302515300 -1.4859013030
 C -0.1783704327  3.1383930818  1.5374689631
 H  2.5691116912  2.8876501575  0.6687946417
 H -3.3172247733 -1.1493870176  0.5684078489
 H -2.5308313953 -2.7475523359  0.4666422692
 H -3.0031201689 -1.8795756195 -1.0042330651
 H  2.9186869594 -1.7508478788 -0.7494352686
 H  2.4681399184 -1.1724693979 -2.3503834503
 H  1.7705476270 -2.6903736518 -1.7781260825
 H -0.2851074780  4.0476696671  0.9305950053
 H  0.3732041221  3.4003747466  2.4357670985
 H -1.1844102848  2.7803285035  1.8231507872
24
step 17
 O -0.4482780602 -2.8450979529 -1.2101280814
 O -2.2198141879  0.8387781553  1.1494645804
 N  0.9824860621 -1.0802257490 -0.8260509013
 N -1.3280241179 -1.0701896965 -0.0166248278
 N  0.5556671615  2.0913368100  0.7777244700
 N  2.2406045777  1.0005355563 -0.2757173591
 C  0.0821553637  0.8187170790  0.3674227898
 C -1.2878021352  0.2743466415  0.5610057585
 C -0.3086795739 -1.7238635747 -0.7570524606
 C  1.1029276013  0.1811102445 -0.2479590921
 C  1.8906048176  2.0926313357  0.3803796162
 C -2.6265254145 -1.7766602181 -0.0107717324
 C  2.1289242564 -1.7298646787 -1.4843968094
 C -0.1815190685  3.1390560278  1.5365692658
 H  2.5720511887  2.8861251397  0.6658536657
 H -3.3118448070 -1.1562797740  0.5679459057
 H -2.5329392194 -2.7540535173  0.4580532442
 H -3.0061517496 -1.8833462153 -1.0130131761
 H  2.9249901615 -1.7624935969 -0.7549647844
 H  2.4701657059 -1.1752310527 -2.3524235013
 H  1.7814669568 -2.7064942811 -1.7725712230
 H -0.2933596435  4.0432358258  0.9263407694
 H  0.3778123467  3.4034401672  2.4338542317
 H -1.1764705488  2.7759596313  1.8228156240
24
step 18
 O -0.4469366124 -2.8459797847 -1.2098849882
 O -2.2153636621  0.8391423412  1.1504240239
 N  0.9821574623 -1.0829472142 -0.8277214258
 N -1.3290018122 -1.0712746775 -0.0125135642
 N  0.5550891154  2.0901037172  0.7744478759
 N  2.2407611260  0.9993875121 -0.2784352035
 C  0.0817085945  0.8175217655  0.3668243001
 C -1.2902865005  0.2759912692  0.5640803613
 C -0.3049929049 -1.7246439299 -0.7586151296
 C  1.1032920014  0.1826960429 -0.2473895136
 C  1.8873625424  2.0938205705  0.3804625096
 C -2.6249822908 -1.7773658105 -0.0097820605
 C  2.1300574032 -1.7293482698 -1.4827680988
 C -0.1846496063  3.1397219306  1.5356192216
 H  2.5748241407  2.8851329409  0.6621837718
 H -3.3065319163 -1.1636102911  0.5673780907
 H -2.5350966210 -2.7608495705  0.4493299808
 H -3.0098069427 -1.8876506093 -1.0232244364
 H  2.9327469892 -1.7752293557 -0.7603961893
 H  2.4721103771 -1.1775967179 -2.3550818563
 H  1.7928509723 -2.7243051712 -1.7673764958
 H -0.3016246299  4.0382213635  0.9221569584
 H  0.3824952167  3.4064033473  2.4321292841
 H -1.1675189509  2.7712510434  1.8218937046
24
step 19
 O -0.4456740319 -2.8469212078 -1.2097039882
 O -2.2108340652  0.8393468580  1.1512756860
 N  0.9817101987 -1.0856107841 -0.8294040134
 N -1.3301647910 -1.0721614419 -0.0082937843
 N  0.5545651816  2.0887633657  0.7711630104
 N  2.2410556307  0.9981841584 -0.2811280709
 C  0.0810210041  0.8164973786  0.3663622686
 C -1.2926296160  0.2775955333  0.5671336874
 C -0.3009700248 -1.7255216371 -0.7601419790
 C  1.1036534531  0.1845354599 -0.2468375363
 C  1.8839774060  2.0949854313  0.3805849047
 C -2.6234027785 -1.7780246059 -0.0087802406
 C  2.1310394944 -1.7288425990 -1.4810696410
 C -0.1876518588  3.1403800105  1.5346178589
 H  2.5772353108  2.8846322105  0.6578091588
 H -3.3018232936 -1.1709648640  0.5671053109
 H -2.5372321373 -2.7677898473  0.4405519751
 H -3.0135829413 -1.8921884090 -1.0335667623
 H  2.9418047945 -1.7886926151 -0.7656106822
 H  2.4738743735 -1.1796908513 -2.3581643568
 H  1.8048819079 -2.7423639493 -1.7623129567
 H -0.3099246782  4.0328480995  0.9179623728
 H  0.3869714389  3.4092070935  2.4302234963
 H -1.1584731191  2.7659457661  1.8207038633
24
step 20
 O -0.4444918280 -2.8479246776 -1.2095866213
 O -2.2062970656  0.8394341507  1.1520648819
 N  0.9811770754 -1.0881690190 -0.8310759242
 N -1.3314686811 -1.0728585936 -0.0039850358
 N  0.5540686555  2.0873454047  0.7678951133
 N  2.2414708493  0.9969597767 -0.2837719102
 C  0.0800869879  0.8156528793  0.3660406638
 C -1.2947319181  0.2790888322  0.5700991829
 C -0.2966754493 -1.7264925713 -0.7616022184
 C  1.1040128888  0.1865624004 -0.2463365971
 C  1.8805087756  2.0960970610  0.3807086500
 C -2.6218046293 -1.7787132492 -0.0079068999
 C  2.1318892674 -1.7284840520 -1.4793504830
 C -0.1904161843  3.1410178379  1.5335622435
 H  2.5790829227  2.8845729859  0.6527587467
 H -3.2982354220 -1.1779479822  0.5675128406
 H -2.5392714448 -2.7746973948  0.4317912242
 H -3.0169955331 -1.8966567516 -1.0427990081
 H  2.9518859763 -1.8024952389 -0.7705818295
 H  2.4753426797 -1.1816637988 -2.3614268218
 H  1.8176757289 -2.7592679472 -1.7571814442
 H -0.3182878776  4.0273616263  0.9136597656
 H  0.3909750990  3.4118033952  2.4277981409
 H -1.1502649710  2.7597750275  1.8195782549
24
step 21
 O -0.4433909256 -2.8489914984 -1.2095338241
 O -2.2018259619  0.8394484700  1.1528385796
 N  0.9805932559 -1.0905750192 -0.8327147668
 N -1.3328665144 -1.0733766709  0.0003914209
 N  0.5535721841  2.0858805442  0.7646698477
 N  2.2419886300  0.9957477303 -0.2863432722
 C  0.0789064237  0.8149941790  0.3658602873
 C -1.2964953588  0.2803997942  0.5729100855
 C -0.2921782455 -1.7275538262 -0.7629645650
 C  1.1043692029  0.1887113558 -0.2459184445
 C  1.8770172069  2.0971279874  0.3807951602
 C -2.6202078773 -1.7795011877 -0.0072797533
 C  2.1326430243 -1.7283938170 -1.4776502826
 C -0.1928471454  3.1416191526  1.5324464408
 H  2.5801731819  2.8849085088  0.6470691456
 H -3.2961931298 -1.1842440641  0.5689120923
 H -2.5411379188 -2.7813834321  0.4231158863
 H -3.0196292176 -1.9007698456 -1.0498738278
 H  2.9626056312 -1.8162305955 -0.7753623714
 H  2.4763958265 -1.1836756857 -2.3646002467
 H  1.8312494447 -2.7737967578 -1.7518428313
 H -0.3267454865  4.0220058547  0.9091505793
 H  0.3942851815  3.4141642614  2.4245845766
 H -1.1437150954  2.7525045924  1.8188233138
24
step 22
 O -0.4423714866 -2.8501215978 -1.2095459025
 O -2.1974929150  0.8394340512  1.1536436010
 N  0.9799958791 -1.0927836256 -0.8342991840
 N -1.3343098471 -1.0737282093  0.0048129606
 N  0.5530489155  2.0843997118  0.7615126098
 N  2.2425902295  0.9945794859 -0.2888198753
 C  0.0774853204  0.8145244151  0.3658185582
 C -1.2978278486  0.2814592859  0.5755024726
 C -0.2875506935 -1.7287046188 -0.7641981496
 C  1.1047196800  0.1909192346 -0.2456124862
 C  1.8735616710  2.0980521197  0.3808061419
 C -2.6186373744 -1.7804433970 -0.0069822065
 C  2.1333517139 -1.7286704056 -1.4759976529
 C -0.1948766563  3.1421614200  1.5312612690
 H  2.5803332894  2.8856054545  0.6407870398
 H -3.2959645239 -1.1896710104  0.5714875463
 H -2.5427527986 -2.7876643249  0.4145954527
 H -3.0211689976 -1.9042742002 -1.0540240288
 H  2.9735061868 -1.8294825871 -0.7800565666
 H  2.4769218970 -1.1858794338 -2.3674184901
 H  1.8455088618 -2.7850084888 -1.7462333147
 H -0.3353274652  4.0169964250  0.9043515754
 H  0.3967490333  3.4162894473  2.4204139256
 H -1.1394075736  2.7439869382  1.8186785308
24
step 23
 O -0.4414329214 -2.8513135751 -1.2096225332
 O -2.1933658778  0.8394331845  1.1545246554
 N  0.9794232116 -1.0947526145 -0.8358094066
 N -1.3357496457 -1.0739276948  0.0092559393
 N  0.5524731778  2.0829334169  0.7584479363
 N  2.2432566828  0.9934840683 -0.2911810135
 C  0.0758363440  0.8142434521  0.3659091766
 C -1.2986474808  0.2822029524  0.5778179618
 C -0.2828665761 -1.7299458740 -0.7652729355
 C  1.1050596442  0.1931268342 -0.2454449898
 C  1.8701975582  2.0988444981  0.3807040830
 C -2.6171244494 -1.7815749620 -0.0070567633
 C  2.1340757337 -1.7293848821 -1.4744099470
 C -0.1964739435  3.1426140644  1.5299944672
 H  2.5794240914  2.8866529930  0.6339704348
 H -3.2976171895 -1.1942142985  0.5752611380
 H -2.5440359813 -2.7933792344  0.4063047937
 H -3.0214185033 -1.9069591831 -1.0548094590
 H  2.9841026603 -1.8418370493 -0.7847865564
 H  2.4768277225 -1.1884060411 -2.3696447788
 H  1.8602519690 -2.7922972426 -1.7403689136
 H -0.3440583537  4.0124966376  0.8992104040
 H  0.3982988537  3.4182117504  2.4152350174
 H -1.1375944165  2.7342060593  1.8192837010
24
step 24
 O -0.4405738952 -2.8525647307 -1.2097627779
 O -2.1895054089  0.8394841196  1.1555222174
 N  0.9789138793 -1.0964437864 -0.8372277233
 N -1.3371372221 -1.0739916100  0.0136959719
 N  0.5518212221  2.0815111086  0.7554989750
 N  2.2439691207  0.9924875654 -0.2934078865
 C  0.0739791775  0.8141477867  0.3661219720
 C -1.2988870410  0.2825741265  0.5798066954
 C -0.2781995731 -1.7312799973 -0.7661601744
 C  1.1053824519  0.1952800926 -0.2454385172
 C  1.8669748001  2.0994812923  0.3804528670
 C -2.6157066363 -1.7829086476 -0.0075027724
 C  2.1348789247 -1.7305780079 -1.4728939753
 C -0.1976498897  3.1429380939  1.5286306878
 H  2.5773492102  2.8880684446  0.6266886150
 H -3.3010065316 -1.1980312483  0.5800833372
 H -2.5449071375 -2.7984053924  0.3983270358
 H -3.0203087848 -1.9086641087 -1.0521376289
 H  2.9939309052 -1.8528951096 -0.7896581844
 H  2.4760485982 -1.1913522558 -2.3710948512
 H  1.8751802196 -2.7954234100 -1.7343436608
 H -0.3529525921  4.0085986552  0.8937186307
 H  0.3989589381  3.4199985158  2.4091197375
 H -1.1381563809  2.7233028275  1.8206623472
24
step 25
 O -0.4397923674 -2.8538711338 -1.2099651046
 O -2.1859616190  0.8396190089  1.1566704470
 N  0.9785060468 -1.0978239432 -0.8385388445
 N -1.3384251459 -1.0739385281  0.0181081699
 N  0.5510718742  2.0801605862  0.7526870271
 N  2.2447090553  0.9916127596 -0.2954838497
 C  0.0719406709  0.8142305713  0.3664428729
 C -1.2984982576  0.2825266722  0.5814301936
 C -0.2736217072 -1.7327105113 -0.7668327821
 C  1.1056795793  0.1973310756 -0.2456115031
 C  1.8639364058  2.0999400402  0.3800184431
 C -2.6144248073 -1.7844355970 -0.0082778942
 C  2.1358227380 -1.7322585146 -1.4714470691
 C -0.1984546616  3.1430876773  1.5271511645
 H  2.5740602943  2.8898991370  0.6190207150
 H -3.3057993985 -1.2014246294  0.5856535494
 H -2.5452874423 -2.8026692727  0.3907541875
 H -3.0179015148 -1.9092825716 -1.0462674142
 H  3.0025920972 -1.8622875494 -0.7947319738
 H  2.4745556789 -1.1947715169 -2.3716550056
 H  1.8899138788 -2.7945262861 -1.7283244104
 H -0.3620103584  4.0053128634  0.8879197550
 H  0.3988430886  3.4217493794  2.4022555193
 H -1.1406319139  2.7115717479  1.8227262263
24
step 26
 O -0.4390856581 -2.8552277219 -1.2102274113
 O -2.1827715302  0.8398620821  1.1579953507
 N  0.9782365316 -1.0988657417 -0.8397301575
 N -1.3395681265 -1.0737892396  0.0224673559
 N  0.5502070917  2.0789074581  0.7500311438
 N  2.2454586379  0.9908788676 -0.2973946037
 C  0.0697547468  0.8144817403  0.3668540032
 C -1.2974553822  0.2820275209  0.5826638244
 C -0.2692018530 -1.7342415893 -0.7672656504
 C  1.1059408065  0.1992387146 -0.2459779718
 C  1.8611174717  2.1002001816  0.3793695440
 C -2.6133182134 -1.7861286263 -0.0093025568
 C  2.1369611834 -1.7344023469 -1.4700582514
 C -0.1989693797  3.1430135378  1.5255334052
 H  2.5695579336  2.8922201213  0.6110529646
 H -3.3115262989 -1.2047930154  0.5915644413
 H -2.5451018957 -2.8061525792  0.3836851034
 H -3.0143875156 -1.9087643212 -1.0377987618
 H  3.0097888917 -1.8696890478 -0.8000022330
 H  2.4723605637 -1.1986684070 -2.3712940763
 H  1.9040098337 -2.7901223092 -1.7225432416
 H -0.3712147390  4.0025672088  0.8819104192
 H  0.3981418307  3.4235900792  2.3949248500
 H -1.1443044837  2.6994292197  1.8252988223
24
step 27
 O -0.4384505334 -2.8566284248 -1.2105470511
 O -2.1799571287  0.8402282426  1.1595133835
 N  0.9781398514 -1.0995484042 -0.8407918782
 N -1.3405238467 -1.0735668827  0.0267482796
 N  0.5492124340  2.0777746409  0.7475477579
 N  2.2462008987  0.9903013706 -0.2991283444
 C  0.0674620303  0.8148882305  0.3673339113
 C -1.2957576769  0.2810586443  0.5834986225
 C -0.2650043234 -1.7358775195 -0.7674359033
 C  1.1061544941  0.2009693193 -0.2465473804
 C  1.8585446939  2.1002439001  0.3784784320
 C -2.6124187654 -1.7879471809 -0.0104668729