3
step 0
 C  0.0000000000 -0.0000000048  0.0000000049
 O -1.1879259289  0.0000000024 -0.0000000025
 O  1.1879259289  0.0000000024 -0.0000000025
3
step 1
 C  0.0010224795 -0.0016668905 -0.0008551685
 O -1.1900051264  0.0033042894  0.0028466606
 O  1.1889826469 -0.0016373989 -0.0019914921
3
step 2
 C  0.0019746464 -0.0033134896 -0.0016998772
 O -1.1920139262  0.0065762884  0.0056661557
 O  1.1900241090 -0.0032615824 -0.0039656402
3
step 3
 C  0.0027993135 -0.0049339048 -0.0025309349
 O -1.1939036626  0.0098131710  0.0084567565
 O  1.1910446112 -0.0048741947 -0.0059231371
3
step 4
 C  0.0034474665 -0.0065220288 -0.0033449686
 O -1.1956304751  0.0130119191  0.0112165867
 O  1.1920371140 -0.0064768424 -0.0078646589
3
step 5
 C  0.0038808174 -0.0080716615 -0.0041385122
 O -1.1971565837  0.0161694130  0.0139436840
 O  1.1929925995 -0.0080710898 -0.0097908605
3
step 6
 C  0.0040732754 -0.0095766413 -0.0049081099
 O -1.1984510712  0.0192825301  0.0166360738
 O  1.1938997498 -0.0096584593 -0.0117023719
3
step 7
 C  0.0040117700 -0.0110309688 -0.0056504178
 O -1.1994903897  0.0223482350  0.0192918366
 O  1.1947448349 -0.0112404287 -0.0135997883
3
step 8
 C  0.0036963157 -0.0124289262 -0.0063622996
 O -1.2002585687  0.0253636633  0.0219091683
 O  1.1955118732 -0.0128184256 -0.0154836601
3
step 9
 C  0.0031393572 -0.0137652351 -0.0070409360
 O -1.2007471664  0.0283262318  0.0244864627
 O  1.1961830749 -0.0143938207 -0.0173544931
3
step 10
 C  0.0023644812 -0.0150353388 -0.0076839895
 O -1.2009550048  0.0312338486  0.0270224684
 O  1.1967395449 -0.0159679272 -0.0192127827
3
step 11
 C  0.0014056224 -0.0162353480 -0.0082895971
 O -1.2008880134  0.0340848679  0.0295162546
 O  1.1971617234 -0.0175419977 -0.0210589855
3
step 12
 C  0.0003057236 -0.0173618796 -0.0088563002
 O -1.2005588419  0.0368779550  0.0319671093
 O  1.1974300058 -0.0191172110 -0.0228934713
3
step 13
 C -0.0008860329 -0.0184122230 -0.0093831207
 O -1.1999859687  0.0396122100  0.0343746339
 O  1.1975259294 -0.0206946728 -0.0247165606
3
step 14
 C -0.0021165874 -0.0193843509 -0.0098695531
 O -1.1991928776  0.0422871723  0.0367387464
 O  1.1974331245 -0.0222754124 -0.0265285343
3
step 15
 C -0.0033314407 -0.0202769114 -0.0103155385
 O -1.1982071201  0.0449028159  0.0390596792
 O  1.1971382071 -0.0238603842 -0.0283296516
3
step 16
 C -0.0044771510 -0.0210891887 -0.0107214137
 O -1.1970592647  0.0474595219  0.0413379600
 O  1.1966316031 -0.0254504708 -0.0301201687
3
step 17
 C -0.0055038140 -0.0218210358 -0.0110878389
 O -1.1957817587  0.0499580351  0.0435743797
 O  1.1959082717 -0.0270464896 -0.0319003619
3
step 18
 C -0.0063674436 -0.0224727807 -0.0114157052
 O -1.1944077428  0.0523994018  0.0457699475
 O  1.1949683082 -0.0286492020 -0.0336705510
3
step 19
 C -0.0070321632 -0.0230451112 -0.0117060270
 O -1.1929698701  0.0547848943  0.0479258333
 O  1.1938174072 -0.0302593241 -0.0354311244
3
step 20
 C -0.0074721048 -0.0235389457 -0.0119598254
 O -1.1914991901  0.0571159268  0.0500433046
 O  1.1924671736 -0.0318775403 -0.0371825621
3
step 21
 C -0.0076729007 -0.0239552991 -0.0121780106
 O -1.1900241670  0.0593939679  0.0521236590
 O  1.1909352602 -0.0335045166 -0.0389254575
3
step 22
 C -0.0076326386 -0.0242951556 -0.0123612736
 O -1.1885699025  0.0616204597  0.0541681608
 O  1.1892453083 -0.0351409155 -0.0406605354
3
step 23
 C -0.0073621339 -0.0245593738 -0.0125100038
 O -1.1871576189  0.0637967675  0.0561780016
 O  1.1874266348 -0.0367874174 -0.0423886742
3
step 24
 C -0.0068844223 -0.0247486506 -0.0126242535
 O -1.1858043959  0.0659242082  0.0581543288
 O  1.1855135887 -0.0384447760 -0.0441109616
3
step 25
 C -0.0062342020 -0.0248634079 -0.0127036638
 O -1.1845230209  0.0680039732  0.0600981847
 O  1.1835449819 -0.0401138260 -0.0458286890
3
step 26
 C -0.0054567595 -0.0249036895 -0.0127474065
 O -1.1833221759  0.0700369979  0.0620103887
 O  1.1815634699 -0.0417954298 -0.0475432766
3
step 27
 C -0.0046050976 -0.0248692467 -0.0127542696
 O -1.1822071111  0.0720240612  0.0638916181
 O  1.1796140686 -0.0434905116 -0.0492562907
3
step 28
 C -0.0037368857 -0.0247596118 -0.0127227471
 O -1.1811803891  0.0739658375  0.0657424477
 O  1.1777426086 -0.0452000540 -0.0509694144
3
step 29
 C -0.0029110536 -0.0245742028 -0.0126511633
 O -1.1802427335  0.0758629637  0.0675634013
 O  1.1759940257 -0.0469250843 -0.0526844059
3
step 30
 C -0.0021841548 -0.0243124563 -0.0125378264
 O -1.1793939258  0.0777161106  0.0693550084
 O  1.1744105280 -0.0486666474 -0.0544030395
3
step 31
 C -0.0016067423 -0.0239739786 -0.0123812024
 O -1.1786336764  0.0795260562  0.0711178620
 O  1.1730297449 -0.0504257634 -0.0561270326
3
step 32
 C -0.0012200259 -0.0235587065 -0.0121800959
 O -1.1779623954  0.0812937499  0.0728526713
 O  1.1718829891 -0.0522033717 -0.0578579621
3
step 33
 C -0.0010530756 -0.0230670653 -0.0119338261
 O -1.1773818052  0.0830203620  0.0745603017
 O  1.1709937694 -0.0540002626 -0.0595971737
3
step 34
 C -0.0011208225 -0.0225001125 -0.0116423800
 O -1.1768953396  0.0847073113  0.0762417980
 O  1.1703766903 -0.0558169978 -0.0613456892
3
step 35
 C -0.0014230800 -0.0218596456 -0.0113065252
 O -1.1765082768  0.0863562703  0.0778983888
 O  1.1700368500 -0.0576538356 -0.0631041279
3
step 36
 C -0.0019447908 -0.0211481696 -0.0109278168
 O -1.1762275320  0.0879691867  0.0795315293
 O  1.1699698202 -0.0595107783 -0.0648727444
3
step 37
 C -0.0026568310 -0.0203688955 -0.0105086038
 O -1.1760614392  0.0895482481  0.0811428761
 O  1.1701620314 -0.0613875395 -0.0666513989
3
step 38
 C -0.0035174299 -0.0195258975 -0.0100520962
 O -1.1760194294  0.0910957687  0.0827341580
 O  1.1705915182 -0.0632833132 -0.0684393790
3
step 39
 C -0.0044755334 -0.0186239185 -0.0095621868
 O -1.1761110341  0.0926141251  0.0843071408
 O  1.1712294483 -0.0651968570 -0.0702354983
3
step 40
 C -0.0054742761 -0.0176682197 -0.0090432833
 O -1.1763449261  0.0941056572  0.0858635444
 O  1.1720417700 -0.0671265057 -0.0720381390
3
step 41
 C -0.0064547520 -0.0166643810 -0.0085000960
 O -1.1767278749  0.0955725625  0.0874049543
 O  1.1729909979 -0.0690702162 -0.0738453241
3
step 42
 C -0.0073598008 -0.0156180772 -0.0079374018
 O -1.1772636963  0.0970167882  0.0889327288
 O  1.1740380058 -0.0710256265 -0.0756548005
3
step 43
 C -0.0081375458 -0.0145348456 -0.0073598040
 O -1.1779522822  0.0984399299  0.0904479102
 O  1.1751437117 -0.0729901288 -0.0774641310
3
step 44
 C -0.0087444399 -0.0134198677 -0.0067715047
 O -1.1787888010  0.0998431461  0.0919511465
 O  1.1762705646 -0.0749609478 -0.0792707864
3
step 45
 C -0.0091476363 -0.0122777827 -0.0061761116
 O -1.1797631472  0.1012270972  0.0934426330
 O  1.1773837740 -0.0769352192 -0.0810722320
3
step 46
 C -0.0093265636 -0.0111125494 -0.0055764904
 O -1.1808597010  0.1025919159  0.0949220779
 O  1.1784522520 -0.0789100633 -0.0828660040
3
step 47
 C -0.0092736480 -0.0099273691 -0.0049746765
 O -1.1820574333  0.1039372120  0.0963886981
 O  1.1794492594 -0.0808826478 -0.0846497713
3
step 48
 C -0.0089941673 -0.0087246614 -0.0043718445
 O -1.1833303739  0.1052621157  0.0978412491
 O  1.1803527657 -0.0828502492 -0.0864213885
3
step 49
 C -0.0085052349 -0.0075060329 -0.0037683068
 O -1.1846484692  0.1065653581  0.0992781042
 O  1.1811455427 -0.0848103565 -0.0881789759
3
step 50
 C -0.0078342803 -0.0062722338 -0.0031635286
 O -1.1859786690  0.1078453686  0.1006973591
 O  1.1818151111 -0.0867608009 -0.0899210128
3
step 51
 C -0.0070178810 -0.0050234649 -0.0025563116
 O -1.1872857254  0.1091003586  0.1020968599
 O  1.1823536622 -0.0886996096 -0.0916462276
3
step 52
 C -0.0060993242 -0.0037595422 -0.0019449586
 O -1.1885335170  0.1103284585  0.1034743251
 O  1.1827575516 -0.0906250175 -0.0933535960
3
step 53
 C -0.0051258111 -0.0024800560 -0.0013274545
 O -1.1896865030  0.1115278588  0.1048274831
 O  1.1830266537 -0.0925354899 -0.0950423420
3
step 54
 C -0.0041459169 -0.0011845555 -0.0007016578
 O -1.1907109844  0.1126969345  0.1061541900
 O  1.1831637160 -0.0944297069 -0.0967119125
3
step 55
 C -0.0032071179  0.0001272661 -0.0000654939
 O -1.1915762562  0.1138343563  0.1074525383
 O  1.1831736551 -0.0963065357 -0.0983619401
3
step 56
 C -0.0023534897  0.0014553947  0.0005828564
 O -1.1922556114  0.1149391863  0.1087209537
 O  1.1830628318 -0.0981649931 -0.0999921986
3
step 57
 C -0.0016236577  0.0027993326  0.0012447817
 O -1.1927271723  0.1160109536  0.1099582765
 O  1.1828383438 -0.1000041992 -0.1016025522
3
step 58
 C -0.0010490625  0.0041579548  0.0019210834
 O -1.1929745419  0.1170497119  0.1111638259
 O  1.1825073754 -0.1018233265 -0.1031929033
3
step 59
 C -0.0006525923  0.0055293896  0.0026118439
 O -1.1929872735  0.1180560765  0.1123374474
 O  1.1820766405 -0.1036215484 -0.1047631404
3
step 60
 C -0.0004476235  0.0069109289  0.0033163252
 O -1.1927611629  0.1190312435  0.1134795434
 O  1.1815519542 -0.1053979914 -0.1063130930
3
step 61
 C -0.0004375171  0.0082989758  0.0040329044
 O -1.1922983609  0.1199769912  0.1145910864
 O  1.1809379687 -0.1071516973 -0.1078424967
3
step 62
 C -0.0006156354  0.0096890758  0.0047590754
 O -1.1916072888  0.1208956588  0.1156736170
 O  1.1802381004 -0.1088816263 -0.1093509926
3
step 63
 C -0.0009659061  0.0110761379  0.0054915728
 O -1.1907023169  0.1217900913  0.1167292314
 O  1.1794546335 -0.1105867681 -0.1108382087
3
step 64
 C -0.0014632457  0.0124544082  0.0062263635
 O -1.1896035089  0.1226636135  0.1177605568
 O  1.1785887815 -0.1122660970 -0.1123037286
3
step 65
 C -0.0020742416  0.0138172547  0.0069585521
 O -1.1883363360  0.1235200242  0.1187707079
 O  1.1776409143 -0.1139184046 -0.1137469769
3
step 66
 C -0.0027591944  0.0151575059  0.0076826380
 O -1.1869307736  0.1243634958  0.1197632189
 O  1.1766111875 -0.1155424531 -0.1151673452
3
step 67
 C -0.0034741270  0.0164676620  0.0083927098
 O -1.1854203757  0.1251984845  0.1207419615
 O  1.1755001255 -0.1171370448 -0.1165642551
3
step 68
 C -0.0041730135  0.0177401357  0.0090826690
 O -1.1838412082  0.1260296305  0.1217110502
 O  1.1743092274 -0.1187011017 -0.1179372314
3
step 69
 C -0.0048102110  0.0189675150  0.0097464798
 O -1.1822306356  0.1268616462  0.1226747309
 O  1.1730415795 -0.1202337515 -0.1192859783
3
step 70
 C -0.0053429833  0.0201428393  0.0103784343
 O -1.1806260041  0.1276991971  0.1236372601
 O  1.1717024322 -0.1217344141 -0.1206104569
3
step 71
 C -0.0057339816  0.0212598728  0.0109734203
 O -1.1790632817  0.1285467796  0.1246027756
 O  1.1702997025 -0.1232028849 -0.1219109571
3
step 72
 C -0.0059535376  0.0223133599  0.0115271752
 O -1.1775757301  0.1294086016  0.1255751687
 O  1.1688443668 -0.1246394061 -0.1231881597
3
step 73
 C -0.0059816073  0.0232992439  0.0120365073
 O -1.1761926950  0.1302884733  0.1265579634
 O  1.1673507104 -0.1260447218 -0.1244431822
3
step 74
 C -0.0058092052  0.0242148289  0.0124994672
 O -1.1749386037  0.1311897163  0.1275542121
 O  1.1658364013 -0.1274201078 -0.1256776022
3
step 75
 C -0.0054391539  0.0250588831  0.0129154556
 O -1.1738322500  0.1321150952  0.1285664178
 O  1.1643223385 -0.1287673810 -0.1268934608
3
step 76
 C -0.0048859739  0.0258317499  0.0132852926
 O -1.1728863979  0.1330667818  0.1295965078
 O  1.1628321720 -0.1300889468 -0.1280932888
3
step 77
 C -0.0041755609  0.0265353037  0.0136111958
 O -1.1721075940  0.1340463418  0.1306458072
 O  1.1613918735 -0.1313877524 -0.1292800629
3
step 78
 C -0.0033443688  0.0271726806  0.0138966147
 O -1.1714963551  0.1350547382  0.1317150043
 O  1.1600293106 -0.1326670883 -0.1304570472
3
step 79
 C -0.0024368099  0.0277480843  0.0141460079
 O -1.1710479070  0.1360923965  0.1328042333
 O  1.1587730333 -0.1339305074 -0.1316277086
3
step 80
 C -0.0015025493  0.0282664770  0.0143645499
 O -1.1707530411  0.1371592754  0.1339131480
 O  1.1576511000 -0.1351816636 -0.1327955702
3
step 81
 C -0.0005934102  0.0287332204  0.0145577860
 O -1.1705991448  0.1382549557  0.1350410190
 O  1.1566897840 -0.1364241312 -0.1339640492
3
step 82
 C  0.0002398913  0.0291536800  0.0147312521
 O -1.1705713125  0.1393787376  0.1361868399
 O  1.1559122333 -0.1376612044 -0.1351362779
3
step 83
 C  0.0009509647  0.0295328204  0.0148900869
 O -1.1706534563  0.1405297387  0.1373494361
 O  1.1553371647 -0.1388956922 -0.1363149211
3
step 84
 C  0.0014980369  0.0298753089  0.0150390682
 O -1.1708283085  0.1417070108  0.1385276049
 O  1.1549786479 -0.1401301121 -0.1375023432
3
step 85
 C  0.0018530448  0.0301838350  0.0151812128
 O -1.1710809226  0.1429095166  0.1397200509
 O  1.1548427796 -0.1413654059 -0.1386994934
3
step 86
 C  0.0019977600  0.0304601712  0.0153185388
 O -1.1713971350  0.1441363424  0.1409256735
 O  1.1549290556 -0.1426019490 -0.1399067646
3
step 87
 C  0.0019282478  0.0307042632  0.0154513188
 O -1.1717654110  0.1453866779  0.1421435235
 O  1.1552288687 -0.1438388476 -0.1411233904
3
step 88
 C  0.0016516714  0.0309147246  0.0155785037
 O -1.1721758549  0.1466598386  0.1433728296
 O  1.1557269186 -0.1450743323 -0.1423477893
3
step 89
 C  0.0011881008  0.0310885674  0.0156974631
 O -1.1726212135  0.1479553828  0.1446131251
 O  1.1564008578 -0.1463056740 -0.1435774972
3
step 90
 C  0.0005666231  0.0312216174  0.0158044058
 O -1.1730957687  0.1492729058  0.1458640208
 O  1.1572231038 -0.1475292894 -0.1448092557
3
step 91
 C -0.0001750111  0.0313085901  0.0158944313
 O -1.1735956447  0.1506121877  0.1471253585
 O  1.1581614123 -0.1487409458 -0.1460392041
3
step 92
 C -0.0009959823  0.0313438066  0.0159622147
 O -1.1741170239  0.1519727965  0.1483967987
 O  1.1591812930 -0.1499359022 -0.1472629821
3
step 93
 C -0.0018508378  0.0313210429  0.0160018393
 O -1.1746573726  0.1533544705  0.1496782090
 O  1.1602460607 -0.1511091772 -0.1484759912
3
step 94
 C -0.0026935665  0.0312340661  0.0160073096
 O -1.1752141640  0.1547568852  0.1509694209
 O  1.1613186166 -0.1522557190 -0.1496735372
3
step 95
 C -0.0034804293  0.0310770362  0.0159729311
 O -1.1757842036  0.1561795922  0.1522701603
 O  1.1623628989 -0.1533706444 -0.1508510450
3
step 96
 C -0.0041724170  0.0308448545  0.0158936442
 O -1.1763630084  0.1576219624  0.1535799836
 O  1.1633451069 -0.1544494439 -0.1520042455
3
step 97
 C -0.0047345754  0.0305330011  0.0157649023
 O -1.1769453996  0.1590834185  0.1548984937
 O  1.1642337861 -0.1554880911 -0.1531292998
3
step 98
 C -0.0051444930  0.0301390753  0.0155840070
 O -1.1775223107  0.1605625602  0.1562245101
 O  1.1650030089 -0.1564833245 -0.1542229715
3
step 99
 C -0.0053868405  0.0296616213  0.0153491727
 O -1.1780832476  0.1620579964  0.1575568358
 O  1.1656307346 -0.1574325980 -0.1552826909
3
step 100
 C -0.0054584979  0.0291011497  0.0150603880
 O -1.1786144731  0.1635678360  0.1588937848
 O  1.1661008433 -0.1583343376 -0.1563067297
3
step 101
 C -0.0053641079  0.0284594301  0.0147187840
 O -1.1791009074  0.1650900094  0.1602335013
 O  1.1664016981 -0.1591877328 -0.1572940456
3
step 102
 C -0.0051193449  0.0277398340  0.0143270289
 O -1.1795250859  0.1666222504  0.1615739057
 O  1.1665275572 -0.1599929759 -0.1582445250
3
step 103
 C -0.0047464881  0.0269470662  0.0138889215
 O -1.1798689942  0.1681620292  0.1629127075
 O  1.1664770850 -0.1607509930 -0.1591586900
3
step 104
 C -0.0042734422  0.0260866518  0.0134090708
 O -1.1801146139  0.1697068776  0.1642476597
 O  1.1662531637 -0.1614633844 -0.1600377131
3
step 105
 C -0.0037352036  0.0251655603  0.0128933172
 O -1.1802435346  0.1712541215  0.1655763669
 O  1.1658636054 -0.1621326260 -0.1608835412
3
step 106
 C -0.0031706015  0.0241915669  0.0123482010
 O -1.1802382844  0.1728011388  0.1668965175
 O  1.1653200358 -0.1627618470 -0.1616987288
3
step 107
 C -0.0026204432  0.0231730172  0.0117807219
 O -1.1800831004  0.1743454341  0.1682059683
 O  1.1646372731 -0.1633547285 -0.1624863422
3
step 108
 C -0.0021254833  0.0221185000  0.0111980382
 O -1.1797647014  0.1758847617  0.1695028659
 O  1.1638325755 -0.1639153806 -0.1632498545
3
step 109
 C -0.0017244641  0.0210365440  0.0106071784
 O -1.1792729743  0.1774172265  0.1707857466
 O  1.1629248564 -0.1644482154 -0.1639930297
3
step 110
 C -0.0014521894  0.0199353024  0.0100147458
 O -1.1786015899  0.1789413864  0.1720536363
 O  1.1619338543 -0.1649578128 -0.1647197999
3
step 111
 C -0.0013377389  0.0188222524  0.0094266363
 O -1.1777485192  0.1804563455  0.1733061384
 O  1.1608793083 -0.1654487874 -0.1654341423
3
step 112
 C -0.0014028929  0.0177039184  0.0088477814
 O -1.1767164339  0.1819618369  0.1745435092
 O  1.1597801762 -0.1659256641 -0.1661399610
3
step 113
 C -0.0016608554  0.0165856385  0.0082819291
 O -1.1755129781  0.1834582896  0.1757667179
 O  1.1586539473 -0.1663927696 -0.1668409822
3
step 114
 C -0.0021153713  0.0154713874  0.0077314802
 O -1.1741508838  0.1849468769  0.1769774845
 O  1.1575160954 -0.1668541477 -0.1675406705
3
step 115
 C -0.0027603676  0.0143636325  0.0071973762
 O -1.1726478787  0.1864295646  0.1781783111
 O  1.1563797172 -0.1673134993 -0.1682421745
3
step 116
 C -0.0035801655  0.0132631549  0.0066790084
 O -1.1710263343  0.1879091963  0.1793725259
 O  1.1552553396 -0.1677741340 -0.1689483036
3
step 117
 C -0.0045494691  0.0121691268  0.0061742434
 O -1.1693130991  0.1893894278  0.1805642306
 O  1.1541507442 -0.1682389613 -0.1696614939
3
step 118
 C -0.0056340047  0.0110793462  0.0056795770
 O -1.1675391395  0.1908746007  0.1817581974
 O  1.1530710881 -0.1687105415 -0.1703838211
3
step 119
 C -0.0067924971  0.0099904001  0.0051903471
 O -1.1657385449  0.1923696901  0.1829597899
 O  1.1520193927 -0.1691911544 -0.1711170804
3
step 120
 C -0.0079787597  0.0088979549  0.0047010239
 O -1.1639474908  0.1938801730  0.1841748271
 O  1.1509970747 -0.1696828859 -0.1718628690
3
step 121
 C -0.0091441497  0.0077971161  0.0042055666
 O -1.1622030269  0.1954118615  0.1854094150
 O  1.1500045782 -0.1701877299 -0.1726226840
3
step 122
 C -0.0102403091  0.0066828501  0.0036978376
 O -1.1605417133  0.1969706958  0.1866697437
 O  1.1490420674 -0.1707076982 -0.1733980311
3
step 123
 C -0.0112220363  0.0055504463  0.0031720518
 O -1.1589981650  0.1985625078  0.1879618597
 O  1.1481101271 -0.1712449300 -0.1741905333
3
step 124
 C -0.0120501072  0.0043959916  0.0026232353
 O -1.1576035904  0.2001927653  0.1892914235
 O  1.1472104181 -0.1718017913 -0.1750020334
3
step 125
 C -0.0126938477  0.0032168288  0.0020476626
 O -1.1563844186  0.2018663113  0.1906634688
 O  1.1463462367 -0.1723809596 -0.1758346800
3
step 126
 C -0.0131332587  0.0020119665  0.0014432403
 O -1.1553611226  0.2035871168  0.1920821770
 O  1.1455229322 -0.1729854827 -0.1766909916
3
step 127
 C -0.0133604961  0.0007824050  0.0008098046
 O -1.1545473373  0.2053580657  0.1935506869
 O  1.1447481370 -0.1736188101 -0.1775738890
3
step 128
 C -0.0133805247 -0.0004687246  0.0001492613
 O -1.1539493501  0.2071808338  0.1950709871
 O  1.1440317478 -0.1742847761 -0.1784866927
3
step 129
 C -0.0132108949 -0.0017363569 -0.0005345146
 O -1.1535659836  0.2090559586  0.1966439589
 O  1.1433856421 -0.1749875238 -0.1794330918
3
step 130
 C -0.0128813845 -0.0030132288 -0.0012355473
 O -1.1533887133  0.2109826374  0.1982692358
 O  1.1428235263 -0.1757315009 -0.1804171027
3
step 131
 C -0.0124323940 -0.0042899456 -0.0019458972
 O -1.1534022837  0.2129586951  0.1999452041
 O  1.1423603490 -0.1765213797 -0.1814429667
3
step 132
 C -0.0119121393 -0.0055554908 -0.0026561269
 O -1.1535857966  0.2149807950  0.2016691949
 O  1.1420112820 -0.1773618863 -0.1825149930
3
step 133
 C -0.0113736606 -0.0067976847 -0.0033557602
 O -1.1539139139  0.2170446197  0.2034376586
 O  1.1417906777 -0.1782576375 -0.1836373896
3
step 134
 C -0.0108714964 -0.0080037224 -0.0040338157
 O -1.1543581929  0.2191450937  0.2052463759
 O  1.1417109090 -0.1792129613 -0.1848140739
3
step 135
 C -0.0104582559 -0.0091607478 -0.0046793741
 O -1.1548884590  0.2212766274  0.2070906847
 O  1.1417811684 -0.1802317108 -0.1860484740
3
step 136
 C -0.0101813266 -0.0102564226 -0.0052821411
 O -1.1554741233  0.2234333641  0.2089657070
 O  1.1420063158 -0.1813170852 -0.1873433340
3
step 137
 C -0.0100799408 -0.0112794534 -0.0058329669
 O -1.1560853777  0.2256094143  0.2108665616
 O  1.1423858709 -0.1824714695 -0.1887005375
3
step 138
 C -0.0101827926 -0.0122200400 -0.0063242872
 O -1.1566942120  0.2277990623  0.2127885504
 O  1.1429132430 -0.1836963062 -0.1901209625
3
step 139
 C -0.0105063598 -0.0130702181 -0.0067504585
 O -1.1572752204  0.2299969364  0.2147273080
 O  1.1435752786 -0.1849920096 -0.1916043818
3
step 140
 C -0.0110540579 -0.0138240904 -0.0071079707
 O -1.1578061741  0.2321981467  0.2166789219
 O  1.1443521993 -0.1863579323 -0.1931494229
3
step 141
 C -0.0118163641 -0.0144780043 -0.0073955543
 O -1.1582683496  0.2343984653  0.2186400758
 O  1.1452180250 -0.1877924127 -0.1947536326
3
step 142
 C -0.0127713575 -0.0150306097 -0.0076141909
 O -1.1586467852  0.2365944596  0.2206081593
 O  1.1461412361 -0.1892928675 -0.1964135792
3
step 143
 C -0.0138852364 -0.0154826340 -0.0077669759
 O -1.1589304730  0.2387833535  0.2225811611
 O  1.1470853557 -0.1908558225 -0.1981248496
3
step 144
 C -0.0151146936 -0.0158366531 -0.0078588217
 O -1.1591120019  0.2409630502  0.2245576740
 O  1.1480103750 -0.1924771084 -0.1998822773
3
step 145
 C -0.0164093851 -0.0160967632 -0.0078960946
 O -1.1591871739  0.2431320795  0.2265368406
 O  1.1488742246 -0.1941520545 -0.2016801616
3
step 146
 C -0.0177145795 -0.0162682054 -0.0078862046
 O -1.1591545123  0.2452895215  0.2285182782
 O  1.1496342707 -0.1958756951 -0.2035124997
3
step 147
 C -0.0189739422 -0.0163569411 -0.0078371515
 O -1.1590146652  0.2474348986  0.2305019768
 O  1.1502488091 -0.1976429795 -0.2053732256
3
step 148
 C -0.0201323352 -0.0163692002 -0.0077570477
 O -1.1587697296  0.2495680452  0.2324881771
 O  1.1506784911 -0.1994489806 -0.2072564467
3
step 149
 C -0.0211384992 -0.0163110236 -0.0076536390
 O -1.1584225411  0.2516889604  0.2344772347
 O  1.1508876262 -0.2012890911 -0.2091566666
3
step 150
 C -0.0219475211 -0.0161878190 -0.0075338457
 O -1.1579759722  0.2537976558  0.2364694794
 O  1.1508453329 -0.2031592034 -0.2110689897
3
step 151
 C -0.0225229990 -0.0160039510 -0.0074033388
 O -1.1574322872  0.2558940064  0.2384650783
 O  1.1505265189 -0.2050558695 -0.2129893016
3
step 152
 C -0.0228388380 -0.0157623840 -0.0072661721
 O -1.1567926016  0.2579776214  0.2404639149
 O  1.1499126884 -0.2069764395 -0.2149144253
3
step 153
 C -0.0228806002 -0.0154643983 -0.0071244859
 O -1.1560564959  0.2600477456  0.2424654961
 O  1.1489925709 -0.2089191767 -0.2168422506
3
step 154
 C -0.0226463090 -0.0151094050 -0.0069783093
 O -1.1552218393  0.2621032129  0.2444689049
 O  1.1477625478 -0.2108833514 -0.2187718355
3
step 155
 C -0.0221465311 -0.0146948763 -0.0068254869
 O -1.1542848699  0.2641425036  0.2464728538
 O  1.1462267961 -0.2128693511 -0.2207035157
3
step 156
 C -0.0214039064 -0.0142163169 -0.0066616798
 O -1.1532404371  0.2661638620  0.2484758074
 O  1.1443971772 -0.2148788206 -0.2226390263
3
step 157
 C -0.0204533500 -0.0136672540 -0.0064803060
 O -1.1520821374  0.2681651819  0.2504758495
 O  1.1422935258 -0.2169145554 -0.2245814142
3
step 158
 C -0.0193405746 -0.0130395058 -0.0062727917
 O -1.1508029814  0.2701441991  0.2524708515
 O  1.1399432069 -0.2189804929 -0.2265350177
3
step 159
 C -0.0181198748 -0.0123235761 -0.0060289649
 O -1.1493962449  0.2720987339  0.2544586937
 O  1.1373803031 -0.2210816578 -0.2285053923
3
step 160
 C -0.0168516740 -0.0115091103 -0.0057375095
 O -1.1478563239  0.2740269263  0.2564374781
 O  1.1346446280 -0.2232240539 -0.2304991817
3
step 161
 C -0.0155995669 -0.0105854582 -0.0053865352
 O -1.1461796517  0.2759274894  0.2584057613
 O  1.1317804209 -0.2254144934 -0.2325239220
3
step 162
 C -0.0144269592 -0.0095423270 -0.0049642446
 O -1.1443656218  0.2777999687  0.2603627954
 O  1.1288347465 -0.2276603632 -0.2345877808
3
step 163
 C -0.0133934469 -0.0083705037 -0.0044596759
 O -1.1424174665  0.2796449908  0.2623087631
 O  1.1258556531 -0.2299693296 -0.2366992332
3
step 164
 C -0.0125511185 -0.0070626147 -0.0038634867
 O -1.1403430409  0.2814644877  0.2642449936
 O  1.1228901801 -0.2323489893 -0.2388666885
3
step 165
 C -0.0119410199 -0.0056138811 -0.0031687355
 O -1.1381554637  0.2832618808  0.2661741449
 O  1.1199823423 -0.2348064851 -0.2410980844
3
step 166
 C -0.0115900579 -0.0040228178 -0.0023716024
 O -1.1358735600  0.2850422108  0.2681003370
 O  1.1171712485 -0.2373481090 -0.2434004786
3
step 167
 C -0.0115086531 -0.0022917952 -0.0014719736
 O -1.1335220371  0.2868121948  0.2700292225
 O  1.1144895138 -0.2399789367 -0.2457796800
3
step 168
 C -0.0116894523 -0.0004272888 -0.0004737605
 O -1.1311312718  0.2885801892  0.2719679870
 O  1.1119620804 -0.2427026026 -0.2482400093
3
step 169
 C -0.0121069525  0.0015601361  0.0006150118
 O -1.1287368126  0.2903560789  0.2739252937
 O  1.1096054368 -0.2455212005 -0.2507841772
3
step 170
 C -0.0127174436  0.0036553478  0.0017818838
 O -1.1263791301  0.2921511810  0.2759111528
 O  1.1074273255 -0.2484348284 -0.2534129123
3
step 171
 C -0.0134614036  0.0058391012  0.0030103981
 O -1.1241023624  0.2939779259  0.2779366399
 O  1.1054272860 -0.2514416100 -0.2561250074
3
step 172
 C -0.0142673691  0.0080889327  0.0042809437
 O -1.1219525044  0.2958493911  0.2800134780
 O  1.1035977489 -0.2545378986 -0.2589175350
3
step 173
 C -0.0150564845  0.0103801924  0.0055717632
 O -1.1199753796  0.2977787694  0.2821535438
 O  1.1019254230 -0.2577185196 -0.2617861083
3
step 174
 C -0.0157478020  0.0126873036  0.0068601866
 O -1.1182143034  0.2997787537  0.2843682833
 O  1.1003929359 -0.2609770995 -0.2647252236
3
step 175
 C -0.0162639226  0.0149851568  0.0081240000
 O -1.1167075820  0.3018608723  0.2866680706
 O  1.0989805680 -0.2643064463 -0.2677286449
3
step 176
 C -0.0165365198  0.0172505198  0.0093428366
 O -1.1154860373  0.3040348236  0.2890615545
 O  1.0976679230 -0.2676989432 -0.2707897956
3
step 177
 C -0.0165112782  0.0194633397  0.0104994712
 O -1.1145707814  0.3063078689  0.2915550482
 O  1.0964354117 -0.2711469191 -0.2739021202
3
step 178
 C -0.0161518172  0.0216078134  0.0115808977
 O -1.1139714673  0.3086843405  0.2941520207
 O  1.0952654484 -0.2746429622 -0.2770593847
3
step 179
 C -0.0154422465  0.0236731217  0.0125790873
 O -1.1136852139  0.3111653201  0.2968527434
 O  1.0941432963 -0.2781801523 -0.2802558952
3
step 180
 C -0.0143880754  0.0256537929  0.0134913669
 O -1.1136963566  0.3137485314  0.2996541513
 O  1.0930575029 -0.2817522289 -0.2834866429
3
step 181
 C -0.0130152610  0.0275497932  0.0143204324
 O -1.1139771290  0.3164284822  0.3025499848
 O  1.0919998686 -0.2853538048 -0.2867474593
3
step 182
 C -0.0113684120  0.0293662559  0.0150740639
 O -1.1144889081  0.3191967578  0.3055310618
 O  1.0909653445 -0.2889804576 -0.2900350740
3
step 183
 C -0.0095087645  0.0311125580  0.0157644560
 O -1.1151836761  0.3220423598  0.3085855019
 O  1.0899519757 -0.2926283766 -0.2933468374
3
step 184
 C -0.0075128498  0.0328017792  0.0164078278
 O -1.1160053236  0.3249520019  0.3116989458
 O  1.0889612039 -0.2962942516 -0.2966806472
3
step 185
 C -0.0054604354  0.0344484735  0.0170217750
 O -1.1168949458  0.3279115488  0.3148561608
 O  1.0879941085 -0.2999750371 -0.3000345640
3
step 186
 C -0.0034325575  0.0360677151  0.0176245251
 O -1.1177923571  0.3309063831  0.3180413302
 O  1.0870514433 -0.3036675996 -0.3034065409
3
step 187
 C -0.0015069051  0.0376738792  0.0182336991
 O -1.1186384769  0.3339220388  0.3212387080
 O  1.0861325536 -0.3073684314 -0.3067941461
3
step 188
 C  0.0002464058  0.0392794612  0.0188651205
 O -1.1193774466  0.3369447700  0.3244332117
 O  1.0852343190 -0.3110733301 -0.3101942598
3
step 189
 C  0.0017683077  0.0408940640  0.0195317902
 O -1.1199583604  0.3399620214  0.3276109218
 O  1.0843502730 -0.3147771049 -0.3136028023
3
step 190
 C  0.0030162961  0.0425230651  0.0202424099
 O -1.1203375908  0.3429631100  0.3307598541
 O  1.0834687869 -0.3184732553 -0.3170143967
3
step 191
 C  0.0039601293  0.0441681529  0.0210021624
 O -1.1204776836  0.3459388463  0.3338694900
 O  1.0825751924 -0.3221539938 -0.3204224842
3
step 192
 C  0.0045847713  0.0458266373  0.0218119022
 O -1.1203486617  0.3488819283  0.3369312429
 O  1.0816508764 -0.3258101222 -0.3238191834
3
step 193
 C  0.0048908758  0.0474913278  0.0226679678
 O -1.1199285639  0.3517871007  0.3399386584
 O  1.0806734561 -0.3294311003 -0.3271953486
3
step 194
 C  0.0048937206  0.0491508527  0.0235624377
 O -1.1192034155  0.3546511662  0.3428874531
 O  1.0796175509 -0.3330052975 -0.3305408031
3
step 195
 C  0.0046215895  0.0507903064  0.0244836493
 O -1.1181669984  0.3574729777  0.3457755524
 O  1.0784557685 -0.3365204730 -0.3338447663
3
step 196
 C  0.0041145137  0.0523914776  0.0254164439
 O -1.1168207717  0.3602534115  0.3486030602
 O  1.0771595707 -0.3399639221 -0.3370960083
3
step 197
 C  0.0034225028  0.0539331772  0.0263425426
 O -1.1151735783  0.3629952547  0.3513721211
 O  1.0757003096 -0.3433226112 -0.3402829957
3
step 198
 C  0.0026024116  0.0553923851  0.0272415724
 O -1.1132407548  0.3657030144  0.3540867510
 O  1.0740506907 -0.3465838492 -0.3433944927
3
step 199
 C  0.0017151726  0.0567451757  0.0280919355
 O -1.1110433001  0.3683827122  0.3567526299
 O  1.0721860187 -0.3497357777 -0.3464200071
3
step 200
 C  0.0008230172  0.0579676626  0.0288717057
 O -1.1086069090  0.3710416429  0.3593768540
 O  1.0700853189 -0.3527678406 -0.3493502160
3
step 201
 C -0.0000133608  0.0590369698  0.0295595618
 O -1.1059608529  0.3736880866  0.3619676347
 O  1.0677323472 -0.3556712244 -0.3521773653
3
step 202
 C -0.0007376274  0.0599322043  0.0301357348
 O -1.1031367354  0.3763309789  0.3645339502
 O  1.0651164653 -0.3584392609 -0.3548956340
3
step 203
 C -0.0013005455  0.0606354106  0.0305829489
 O -1.1001671709  0.3789795477  0.3670851614
 O  1.0622333742 -0.3610677810 -0.3575014555
3
step 204
 C -0.0016625365  0.0611324780  0.0308873248
 O -1.0970844478  0.3816429324  0.3696306058
 O  1.0590857024 -0.3635554170 -0.3599937923
3
step 205
 C -0.0017959437  0.0614139639  0.0310392083
 O -1.0939192637  0.3843298056  0.3721791963
 O  1.0556834405 -0.3659038441 -0.3623743562
3
step 206