3
step 0
 C  0.0000000000 -0.0000000048  0.0000000049
 O -1.1879259289  0.0000000024 -0.0000000025
 O  1.1879259289  0.0000000024 -0.0000000025
3
step 1
 C  0.0010227368 -0.0016673099 -0.0008553837
 O -1.1900056496  0.0033051209  0.0028473770
 O  1.1889829129 -0.0016378109 -0.0019919932
3
step 2
 C  0.0019751434 -0.0033143233 -0.0017003049
 O -1.1920149550  0.0065779433  0.0056675815
 O  1.1900246370 -0.0032624032 -0.0039666381
3
step 3
 C  0.0028000187 -0.0049351460 -0.0025315715
 O -1.1939051674  0.0098156401  0.0084588844
 O  1.1910453959 -0.0048754213 -0.0059246276
3
step 4
 C  0.0034483364 -0.0065236690 -0.0033458096
 O -1.1956324156  0.0130151926  0.0112194087
 O  1.1920381484 -0.0064784722 -0.0078666379
3
step 5
 C  0.0038817996 -0.0080736902 -0.0041395517
 O -1.1971589104  0.0161734799  0.0139471912
 O  1.1929938741 -0.0080731206 -0.0097933242
3
step 6
 C  0.0040743109 -0.0095790461 -0.0049093411
 O -1.1984537271  0.0192873781  0.0166402569
 O  1.1939012525 -0.0096608894 -0.0117053164
3
step 7
 C  0.0040127969 -0.0110337355 -0.0056518328
 O -1.1994933120  0.0223538512  0.0192966854
 O  1.1947465499 -0.0112432566 -0.0136032099
3
step 8
 C  0.0036972715 -0.0124320389 -0.0063638895
 O -1.2002616903  0.0253700334  0.0219146719
 O  1.1955137810 -0.0128216500 -0.0154875552
3
step 9
 C  0.0031401817 -0.0137686763 -0.0070426910
 O -1.2007504176  0.0283333408  0.0244926098
 O  1.1961851516 -0.0143974408 -0.0173588581
3
step 10
 C  0.0023651188 -0.0150390894 -0.0076858990
 O -1.2009583146  0.0312416805  0.0270292470
 O  1.1967417619 -0.0159719423 -0.0192176141
3
step 11
 C  0.0014060241 -0.0162393879 -0.0082916500
 O -1.2008913113  0.0340934065  0.0295236523
 O  1.1971640476 -0.0175464075 -0.0210642798
3
step 12
 C  0.0003058489 -0.0173661877 -0.0088584851
 O -1.2005620590  0.0368871833  0.0319751136
 O  1.1974323993 -0.0191220156 -0.0228992250
3
step 13
 C -0.0008862144 -0.0184167776 -0.0093854260
 O -1.1999890393  0.0396221107  0.0343832319
 O  1.1975283499 -0.0206998721 -0.0247227701
3
step 14
 C -0.0021170948 -0.0193891299 -0.0098719672
 O -1.1991957405  0.0422977284  0.0367479254
 O  1.1974355255 -0.0222810068 -0.0265351962
3
step 15
 C -0.0033322813 -0.0202818925 -0.0103180500
 O -1.1982097195  0.0449140100  0.0390694266
 O  1.1971405391 -0.0238663742 -0.0283367621
3
step 16
 C -0.0044783196 -0.0210943498 -0.0107240116
 O -1.1970615515  0.0474713373  0.0413482633
 O  1.1966338137 -0.0254568571 -0.0301277243
3
step 17
 C -0.0055052934 -0.0218263551 -0.0110905128
 O -1.1957836911  0.0499704553  0.0435852271
 O  1.1959103068 -0.0270532731 -0.0319083587
3
step 18
 C -0.0063692051 -0.0224782372 -0.0114184454
 O -1.1944092870  0.0524124110  0.0457813274
 O  1.1949701128 -0.0286563836 -0.0336789856
3
step 19
 C -0.0070341670 -0.0230506845 -0.0117088244
 O -1.1929710008  0.0547984775  0.0479377349
 O  1.1938189267 -0.0302669049 -0.0354399930
3
step 20
 C -0.0074743020 -0.0235446163 -0.0119626718
 O -1.1914998902  0.0571300696  0.0500557177
 O  1.1924683549 -0.0318855215 -0.0371918612
3
step 21
 C -0.0076752356 -0.0239610483 -0.0121808985
 O -1.1900244275  0.0594086569  0.0521365741
 O  1.1909360531 -0.0335128996 -0.0389351837
3
step 22
 C -0.0076350507 -0.0243009658 -0.0123641960
 O -1.1885697221  0.0616356823  0.0541815690
 O  1.1892456665 -0.0351497019 -0.0406706855
3
step 23
 C -0.0073645610 -0.0245652279 -0.0125129542
 O -1.1871570032  0.0638125118  0.0561918947
 O  1.1874265178 -0.0367966091 -0.0423992455
3
step 24
 C -0.0068868041 -0.0247545322 -0.0126272256
 O -1.1858033562  0.0659404629  0.0581686992
 O  1.1855129629 -0.0384543749 -0.0441219515
3
step 25
 C -0.0062364825 -0.0248693011 -0.0127066513
 O -1.1845215733  0.0680207280  0.0601130254
 O  1.1835438221 -0.0401238345 -0.0458400955
3
step 26
 C -0.0054588910 -0.0249095784 -0.0127504029
 O -1.1833203402  0.0700542426  0.0620256929
 O  1.1815617604 -0.0418058506 -0.0475550985
3
step 27
 C -0.0046070434 -0.0248751153 -0.0127572677
 O -1.1822049095  0.0720417862  0.0639073794
 O  1.1796118047 -0.0435013478 -0.0492685273
3
step 28
 C -0.0037386231 -0.0247654439 -0.0127257392
 O -1.1811778454  0.0739840335  0.0657586602
 O  1.1777397974 -0.0452113091 -0.0509820659
3
step 29
 C -0.0029125751 -0.0245799818 -0.0126541407
 O -1.1802398722  0.0758816213  0.0675800589
 O  1.1759906867 -0.0469367626 -0.0526974735
3
step 30
 C -0.0021854690 -0.0243181650 -0.0125407794
 O -1.1793907717  0.0777352210  0.0693721054
 O  1.1744066929 -0.0486787535 -0.0544165250
3
step 31
 C -0.0016078737 -0.0239795992 -0.0123841200
 O -1.1786302539  0.0795456105  0.0711353929
 O  1.1730254570 -0.0504383026 -0.0561409390
3
step 32
 C -0.0012210128 -0.0235642209 -0.0121829666
 O -1.1779587292  0.0813137396  0.0728706306
 O  1.1718783023 -0.0522163499 -0.0578722930
3
step 33
 C -0.0010539681 -0.0230724549 -0.0119366375
 O -1.1773779199  0.0830407787  0.0745786842
 O  1.1709887464 -0.0540136862 -0.0596119337
3
step 34
 C -0.0011216785 -0.0225053585 -0.0116451191
 O -1.1768912602  0.0847281472  0.0762605988
 O  1.1703714001 -0.0558308738 -0.0613608835
3
step 35
 C -0.0014239611 -0.0218647297 -0.0113091792
 O -1.1765040292  0.0863775180  0.0779176035
 O  1.1700313652 -0.0576681710 -0.0631197621
3
step 36
 C -0.0019457580 -0.0211530739 -0.0109303730
 O -1.1762231436  0.0879908394  0.0795511538
 O  1.1699642143 -0.0595255806 -0.0648888242
3
step 37
 C -0.0026579402 -0.0203736032 -0.0105110505
 O -1.1760569392  0.0895703000  0.0811629071
 O  1.1701563761 -0.0614028161 -0.0666679303
3
step 38
 C -0.0035187280 -0.0195303931 -0.0100544228
 O -1.1760148492  0.0911182144  0.0827545926
 O  1.1705858805 -0.0632990711 -0.0684563675
3
step 39
 C -0.0044770548 -0.0186281881 -0.0095643843
 O -1.1761064077  0.0926369604  0.0843279771
 O  1.1712238885 -0.0652131030 -0.0702529488
3
step 40
 C -0.0054760406 -0.0176722516 -0.0090453446
 O -1.1763402900  0.0941288786  0.0858847809
 O  1.1720363396 -0.0671432459 -0.0720560559
3
step 41
 C -0.0064567634 -0.0166681656 -0.0085020160
 O -1.1767232676  0.0955961674  0.0874265903
 O  1.1729857389 -0.0690874558 -0.0738637107
3
step 42
 C -0.0073620469 -0.0156216069 -0.0079391776
 O -1.1772591580  0.0970407747  0.0889547640
 O  1.1740329496 -0.0710433697 -0.0756736591
3
step 43
 C -0.0081399999 -0.0145381151 -0.0073614346
 O -1.1779478536  0.0984642964  0.0904703447
 O  1.1751388793 -0.0730083789 -0.0774834627
3
step 44
 C -0.0087470625 -0.0134228736 -0.0067729912
 O -1.1787845223  0.0998678913  0.0919739805
 O  1.1762659669 -0.0749797066 -0.0792905910
3
step 45
 C -0.0091503778 -0.0122805231 -0.0061774562
 O -1.1797590565  0.1012522200  0.0934658667
 O  1.1773794123 -0.0769544876 -0.0810925082
3
step 46
 C -0.0093293676 -0.0111150237 -0.0055776967
 O -1.1808558332  0.1026174148  0.0949457112
 O  1.1784481191 -0.0789298408 -0.0828867494
3
step 47
 C -0.0092764548 -0.0099295775 -0.0049757486
 O -1.1820538181  0.1039630850  0.0964127302
 O  1.1794453407 -0.0809029329 -0.0846709823
3
step 48
 C -0.0089969172 -0.0087266044 -0.0043727868
 O -1.1833270348  0.1052883599  0.0978656785
 O  1.1803490402 -0.0828710392 -0.0864430606
3
step 49
 C -0.0085078712 -0.0075077109 -0.0037691234
 O -1.1846454225  0.1065919696  0.0993029282
 O  1.1811419843 -0.0848316476 -0.0882011036
3
step 50
 C -0.0078367518 -0.0062736469 -0.0031642230
 O -1.1859759224  0.1078723422  0.1007225739
 O  1.1818116895 -0.0867825886 -0.0899435900
3
step 51
 C -0.0070201445 -0.0050246124 -0.0025568863
 O -1.1872832781  0.1091276880  0.1021224604
 O  1.1823503446 -0.0887218885 -0.0916692476
3
step 52
 C -0.0061013461 -0.0037604224 -0.0019454147
 O -1.1885313591  0.1103561359  0.1035003047
 O  1.1827543032 -0.0906477817 -0.0933770515
3
step 53
 C -0.0051275685 -0.0024806660 -0.0013277919
 O -1.1896846157  0.1115558751  0.1048538339
 O  1.1830234387 -0.0925587330 -0.0950662257
3
step 54
 C -0.0041473980 -0.0011848914 -0.0007018748
 O -1.1907093402  0.1127252792  0.1061809028
 O  1.1831604986 -0.0944534219 -0.0967362166
3
step 55
 C -0.0032083223  0.0001272094 -0.0000655872
 O -1.1915748201  0.1138630181  0.1074796026
 O  1.1831704000 -0.0963307155 -0.0983866569
3
step 56
 C -0.0023544274  0.0014556233  0.0005828915
 O -1.1922543413  0.1149681526  0.1087483580
 O  1.1830595048 -0.0981896304 -0.1000173202
3
step 57
 C -0.0016243486  0.0027998534  0.0012449509
 O -1.1927260201  0.1160402115  0.1099860085
 O  1.1828349122 -0.1000292863 -0.1016280710
3
step 58
 C -0.0010495352  0.0041587749  0.0019213935
 O -1.1929734548  0.1170792476  0.1111918724
 O  1.1825038081 -0.1018488559 -0.1032188114
3
step 59
 C -0.0006528825  0.0055305166  0.0026123024
 O -1.1929861951  0.1180858762  0.1123657951
 O  1.1820729080 -0.1036475123 -0.1047894304
3
step 60
 C -0.0004477721  0.0069123699  0.0033169399
 O -1.1927600344  0.1190612934  0.1135081786
 O  1.1815480290 -0.1054243820 -0.1063397572
3
step 61
 C -0.0004375685  0.0083007376  0.0040336829
 O -1.1922971227  0.1200072779  0.1146199956
 O  1.1809338246 -0.1071785066 -0.1078695276
3
step 62
 C -0.0006156353  0.0096911641  0.0047600248
 O -1.1916058814  0.1209261695  0.1157027871
 O  1.1802337126 -0.1089088460 -0.1093783828
3
step 63
 C -0.0009658995  0.0110785567  0.0054926994
 O -1.1907006828  0.1218208140  0.1167586500
 O  1.1794499785 -0.1106143900 -0.1108659507
3
step 64
 C -0.0014632749  0.0124571601  0.0062276724
 O -1.1896015933  0.1226945373  0.1177902124
 O  1.1785838365 -0.1122941125 -0.1123318147
3
step 65
 C -0.0020743439  0.0138203400  0.0069600464
 O -1.1883340887  0.1235511397  0.1188005901
 O  1.1776356574 -0.1139468048 -0.1137753995
3
step 66
 C -0.0027594001  0.0151609225  0.0076843190
 O -1.1869281500  0.1243947951  0.1197933187
 O  1.1766055972 -0.1155712290 -0.1151960965
3
step 67
 C -0.0034744579  0.0164714050  0.0083945763
 O -1.1854173383  0.1252299615  0.1207722717
 O  1.1754941807 -0.1171661870 -0.1165933271
3
step 68
 C -0.0041734809  0.0177441973  0.0090847174
 O -1.1838377275  0.1260612809  0.1217415652
 O  1.1743029074 -0.1187306006 -0.1179666161
3
step 69
 C -0.0048108153  0.0189718844  0.0097487038
 O -1.1822266911  0.1268934679  0.1227054472
 O  1.1730348644 -0.1202635972 -0.1193156675
3
step 70
 C -0.0053437134  0.0201475029  0.0103808250
 O -1.1806215849  0.1277311901  0.1236681761
 O  1.1716953030 -0.1217645967 -0.1206404426
3
step 71
 C -0.0057348155  0.0212648144  0.0109759664
 O -1.1790583865  0.1285789458  0.1246338916
 O  1.1702921416 -0.1232333946 -0.1219412315
3
step 72
 C -0.0059544426  0.0223185608  0.0115298633
 O -1.1775703676  0.1294409449  0.1256064872
 O  1.1688363587 -0.1246702332 -0.1232187153
3
step 73
 C -0.0059825425  0.0233046838  0.0120393224
 O -1.1761868828  0.1303209996  0.1265894885
 O  1.1673422421 -0.1260758572 -0.1244740120
3
step 74
 C -0.0058101232  0.0242204862  0.0125023932
 O -1.1749323677  0.1312224329  0.1275859496
 O  1.1658274634 -0.1274515431 -0.1257087000
3
step 75
 C -0.0054400040  0.0250647357  0.0129184757
 O -1.1738256230  0.1321480108  0.1285983748
 O  1.1643129259 -0.1287991087 -0.1269248215
3
step 76
 C -0.0048867051  0.0258377759  0.0132883905
 O -1.1728794181  0.1330999065  0.1296286924
 O  1.1628222849 -0.1301209607 -0.1281249083
3
step 77
 C -0.0041761252  0.0265414821  0.0136143560
 O -1.1721003033  0.1340796860  0.1306782283
 O  1.1613815179 -0.1314200477 -0.1293119387
3
step 78
 C -0.0033447246  0.0271789922  0.0138998233
 O -1.1714887974  0.1350883131  0.1317476713
 O  1.1600184993 -0.1326996620 -0.1304891785
3
step 79
 C -0.0024369250  0.0277545122  0.0141492533
 O -1.1710401261  0.1361262132  0.1328371556
 O  1.1587617864 -0.1339633583 -0.1316600962
3
step 80
 C -0.0015024035  0.0282730069  0.0143678233
 O -1.1707450798  0.1371933451  0.1339463348
 O  1.1576394451 -0.1352147926 -0.1328282168
3
step 81
 C -0.0005929967  0.0287398412  0.0145610814
 O -1.1705910432  0.1382892893  0.1350744792
 O  1.1566777565 -0.1364575411 -0.1339969595
3
step 82
 C  0.0002405649  0.0291603837  0.0147345668
 O -1.1705631074  0.1394133454  0.1362205816
 O  1.1558998757 -0.1376948999 -0.1351694581
3
step 83
 C  0.0009518771  0.0295396021  0.0148934212
 O -1.1706451801  0.1405646305  0.1373834671
 O  1.1553245258 -0.1389296796 -0.1363483791
3
step 84
 C  0.0014991534  0.0298821664  0.0150424250
 O -1.1708199892  0.1417421958  0.1385619318
 O  1.1549657817 -0.1401643992 -0.1375360884
3
step 85
 C  0.0018543205  0.0301907682  0.0151845972
 O -1.1710725840  0.1429450032  0.1397546799
 O  1.1548297439 -0.1414000015 -0.1387335357
3
step 86
 C  0.0019991425  0.0304671811  0.0153219571
 O -1.1713887967  0.1441721386  0.1409606100
 O  1.1549159096 -0.1426368621 -0.1399411144
3
step 87
 C  0.0019296805  0.0307113515  0.0154547781
 O -1.1717570892  0.1454227911  0.1421787723
 O  1.1552156711 -0.1438740869 -0.1411580579
3
step 88
 C  0.0016530969  0.0309218924  0.0155820108
 O -1.1721675625  0.1466962756  0.1434083949
 O  1.1557137257 -0.1451099060 -0.1423827839
3
step 89
 C  0.0011894646  0.0310958146  0.0157010236
 O -1.1726129611  0.1479921501  0.1446490109
 O  1.1563877212 -0.1463415887 -0.1436128272
3
step 90
 C  0.0005678764  0.0312289419  0.0158080235
 O -1.1730875650  0.1493100098  0.1459002307
 O  1.1572100689 -0.1475655500 -0.1448449277
3
step 91
 C -0.0001739089  0.0313159870  0.0158981077
 O -1.1735874968  0.1506496344  0.1471618958
 O  1.1581485169 -0.1487775551 -0.1460752228
3
step 92
 C -0.0009950625  0.0313512682  0.0159659487
 O -1.1741089377  0.1520105919  0.1484336666
 O  1.1591685667 -0.1499728603 -0.1472993499
3
step 93
 C -0.0018501206  0.0313285580  0.0160056265
 O -1.1746493531  0.1533926202  0.1497154107
 O  1.1602335236 -0.1511464819 -0.1485127080
3
step 94
 C -0.0026930609  0.0312416203  0.0160111426
 O -1.1752062154  0.1547953948  0.1510069593
 O  1.1613062799 -0.1522933650 -0.1497106005
3
step 95
 C -0.0034801332  0.0310846115  0.0159767994
 O -1.1757763293  0.1562184671  0.1523080383
 O  1.1623507645 -0.1534086238 -0.1508884499
3
step 96
 C -0.0041723180  0.0308524303  0.0158975345
 O -1.1763552107  0.1576612077  0.1536182035
 O  1.1633331680 -0.1544877465 -0.1520419845
3
step 97
 C -0.0047346519  0.0305405537  0.0157687986
 O -1.1769376797  0.1591230390  0.1549370581
 O  1.1642220275 -0.1555267041 -0.1531673635
3
step 98
 C -0.0051447164  0.0301465792  0.0155878918
 O -1.1775146678  0.1606025601  0.1562634207
 O  1.1649914087 -0.1565222332 -0.1542613485
3
step 99
 C -0.0053871774  0.0296690499  0.0153530269
 O -1.1780756785  0.1620983795  0.1575960939
 O  1.1656192644 -0.1574717861 -0.1553213682
3
step 100
 C -0.0054589122  0.0291084757  0.0150641923
 O -1.1786069716  0.1636086051  0.1589333907
 O  1.1660894701 -0.1583737876 -0.1563456932
3
step 101
 C -0.0053645628  0.0284666263  0.0147225188
 O -1.1790934639  0.1651311663  0.1602734545
 O  1.1663903847 -0.1592274263 -0.1573332803
3
step 102
 C -0.0051198056  0.0277468740  0.0143306757
 O -1.1795176869  0.1666637960  0.1616142047
 O  1.1665162637 -0.1600328940 -0.1582840153
3
step 103
 C -0.0047469225  0.0269539254  0.0138924629
 O -1.1798616220  0.1682039632  0.1629533497
 O  1.1664657700 -0.1607911169 -0.1591984203
3
step 104
 C -0.0042738234  0.0260933073  0.0134124913
 O -1.1801072464  0.1697491985  0.1642886413
 O  1.1662417847 -0.1615036955 -0.1600776680
3
step 105
 C -0.0037355110  0.0251719918  0.0128966035
 O -1.1802361455  0.1712968266  0.1656176828
 O  1.1658521206 -0.1621731063 -0.1609237058
3
step 106
 C -0.0031708220  0.0241977572  0.0123513426
 O -1.1802308430  0.1728442241  0.1669381616
 O  1.1653084047 -0.1628024797 -0.1617390889
3
step 107
 C -0.0026205722  0.0231789523  0.0117837112
 O -1.1800755719  0.1743888945  0.1682479334
 O  1.1646254576 -0.1633954979 -0.1625268849
3
step 108
 C -0.0021255252  0.0221241695  0.0112008708
 O -1.1797570475  0.1759285910  0.1695451436
 O  1.1638205405 -0.1639562727 -0.1632905682
3
step 109
 C -0.0017244326  0.0210419411  0.0106098530
 O -1.1792651535  0.1774614176  0.1708283278
 O  1.1629125706 -0.1644892179 -0.1640339041
3
step 110
 C -0.0014521071  0.0199404238  0.0100172640
 O -1.1785935585  0.1789859314  0.1720965113
 O  1.1619212909 -0.1649989150 -0.1647608267
3
step 111
 C -0.0013376369  0.0188270979  0.0094290029
 O -1.1777402315  0.1805012360  0.1733492969
 O  1.1608664448 -0.1654899808 -0.1654753146
3
step 112
 C -0.0014028097  0.0177084909  0.0088500033
 O -1.1767078437  0.1820070642  0.1745869412
 O  1.1597669953 -0.1659669421 -0.1661812738
3
step 113
 C -0.0016608353  0.0165899433  0.0082840151
 O -1.1755040395  0.1835038451  0.1758104133
 O  1.1586404362 -0.1664341274 -0.1668824321
3
step 114
 C -0.0021154632  0.0154754316  0.0077334407
 O -1.1741415520  0.1849927525  0.1770214339
 O  1.1575022460 -0.1668955821 -0.1675822556
3
step 115
 C -0.0027606222  0.0143674241  0.0071992221
 O -1.1726381114  0.1864757530  0.1782225060
 O  1.1563655250 -0.1673550089 -0.1682838944
3
step 116
 C -0.0035806332  0.0132667024  0.0066807506
 O -1.1710160931  0.1879556912  0.1794169591
 O  1.1552408040 -0.1678157186 -0.1689901592
3
step 117
 C -0.0045501982  0.0121724382  0.0061758919
 O -1.1693023502  0.1894362245  0.1806088966
 O  1.1541358672 -0.1682806220 -0.1697034871
3
step 118
 C -0.0056350379  0.0110824282  0.0056811402
 O -1.1675278551  0.1909216966  0.1818030928
 O  1.1530558740 -0.1687522803 -0.1704259546
3
step 119
 C -0.0067938694  0.0099932573  0.0051918310
 O -1.1657267045  0.1924170849  0.1830049138
 O  1.1520038469 -0.1692329742 -0.1711593576
3
step 120
 C -0.0079804961  0.0089005893  0.0047024317
 O -1.1639350821  0.1939278691  0.1842201813
 O  1.1509812036 -0.1697247900 -0.1719052938
3
step 121
 C -0.0091462635  0.0077995265  0.0042068981
 O -1.1621900468  0.1954598642  0.1854550042
 O  1.1499883882 -0.1702297224 -0.1726652609
3
step 122
 C -0.0102428006  0.0066850320  0.0036990890
 O -1.1605281681  0.1970190134  0.1867155757
 O  1.1490255649 -0.1707497836 -0.1734407647
3
step 123
 C -0.0112248929  0.0055523918  0.0031732156
 O -1.1589840708  0.1986111519  0.1880079454
 O  1.1480933183 -0.1712871132 -0.1742334288
3
step 124
 C -0.0120533033  0.0043976894  0.0026243009
 O -1.1575889725  0.2002417504  0.1893377770
 O  1.1471933090 -0.1718440781 -0.1750450964
3
step 125
 C -0.0126973468  0.0032182652  0.0020486162
 O -1.1563693108  0.2019156546  0.1907101068
 O  1.1463288331 -0.1724233561 -0.1758779167
3
step 126
 C -0.0131370151  0.0020131256  0.0014440664
 O -1.1553455660  0.2036368382  0.1921291184
 O  1.1455052406 -0.1730279962 -0.1767344089
3
step 127
 C -0.0133644578  0.0007832701  0.0008104863
 O -1.1545313787  0.2054081865  0.1935979527
 O  1.1447301646 -0.1736614488 -0.1776174947
3
step 128
 C -0.0133846370 -0.0004681703  0.0001497815
 O -1.1539330398  0.2072313768  0.1951185993
 O  1.1440135037 -0.1743275495 -0.1785304958
3
step 129
 C -0.0132151040 -0.0017361287 -0.0005341717
 O -1.1535493739  0.2091069471  0.1966919400
 O  1.1433671373 -0.1750304428 -0.1794771026
3
step 130
 C -0.0128856409 -0.0030133398 -0.0012353956
 O -1.1533718556  0.2110340946  0.1983176086
 O  1.1428047748 -0.1757745781 -0.1804613330
3
step 131
 C -0.0124366559 -0.0042904053 -0.0019459472
 O -1.1533852271  0.2130106431  0.1999939905
 O  1.1423413680 -0.1765646293 -0.1814874299
3
step 132
 C -0.0119163756 -0.0055563041 -0.0026563851
 O -1.1535685861  0.2150332547  0.2017184153
 O  1.1419920925 -0.1774053243 -0.1825597044
3
step 133
 C -0.0113778530 -0.0067988514 -0.0033562283
 O -1.1538965886  0.2170976096  0.2034873317
 O  1.1417713045 -0.1783012818 -0.1836823661
3
step 134
 C -0.0108756402 -0.0080052366 -0.0040344901
 O -1.1543407856  0.2191986300  0.2052965182
 O  1.1416913806 -0.1792568315 -0.1848593341
3
step 135
 C -0.0104623604 -0.0091625976 -0.0046802460
 O -1.1548709948  0.2213307234  0.2071413101
 O  1.1417615164 -0.1802758279 -0.1860940378
3
step 136
 C -0.0101854141 -0.0102585908 -0.0052831969
 O -1.1554566201  0.2234880302  0.2090168269
 O  1.1419865740 -0.1813614715 -0.1873892225
3
step 137
 C -0.0100840449 -0.0112819176 -0.0058341883
 O -1.1560678457  0.2256646577  0.2109181847
 O  1.1423660740 -0.1825161478 -0.1887467724
3
step 138
 C -0.0101869560 -0.0122227733 -0.0063256522
 O -1.1566766542  0.2278548876  0.2128406828
 O  1.1428934255 -0.1837412999 -0.1901675659
3
step 139
 C -0.0105106312 -0.0130731902 -0.0067519425
 O -1.1572576335  0.2300533450  0.2147799535
 O  1.1435554727 -0.1850373418 -0.1916513753
3
step 140
 C -0.0110584886 -0.0138272685 -0.0071095471
 O -1.1577885487  0.2322551380  0.2167320819
 O  1.1443324335 -0.1864036254 -0.1931968272
3
step 141
 C -0.0118210055 -0.0144813543 -0.0073971963
 O -1.1582506713  0.2344560359  0.2186937501
 O  1.1451983224 -0.1878384878 -0.1948014669
3
step 142
 C -0.0127762574 -0.0150340972 -0.0076158718
 O -1.1586290348  0.2366526046  0.2206623460
 O  1.1461216128 -0.1893393440 -0.1964618608
3
step 143
 C -0.0138904366 -0.0154862252 -0.0077686709
 O -1.1589126284  0.2388420663  0.2226358570
 O  1.1470658197 -0.1909027178 -0.1981735932
3
step 144
 C -0.0151202270 -0.0158403159 -0.0078605083
 O -1.1590940379  0.2410223231  0.2246128749
 O  1.1479909253 -0.1925244371 -0.1999314950
3
step 145
 C -0.0164152745 -0.0161004682 -0.0078977534
 O -1.1591690636  0.2431919040  0.2265925417
 O  1.1488548503 -0.1941998288 -0.2017298622
3
step 146
 C -0.0177208358 -0.0162719260 -0.0078878202
 O -1.1591362278  0.2453498884  0.2285744744
 O  1.1496149510 -0.1959239242 -0.2035626888
3
step 147
 C -0.0189805640 -0.0163606541 -0.0078387126
 O -1.1589961779  0.2474957985  0.2305586627
 O  1.1502295134 -0.1976916699 -0.2054239058
3
step 148
 C -0.0201393082 -0.0163728860 -0.0077585469
 O -1.1587510109  0.2496294685  0.2325453474
 O  1.1506591792 -0.1994981358 -0.2073076171
3
step 149
 C -0.0211457971 -0.0163146661 -0.0076550735
 O -1.1584035629  0.2517508977  0.2345348843
 O  1.1508682492 -0.2013387120 -0.2092083235
3
step 150
 C -0.0219551056 -0.0161914056 -0.0075352161
 O -1.1579567072  0.2538600977  0.2365276032
 O  1.1508258338 -0.2032092886 -0.2111211266
3
step 151
 C -0.0225308215 -0.0160074720 -0.0074046494
 O -1.1574127089  0.2559569438  0.2385236715
 O  1.1505068335 -0.2051064154 -0.2130419097
3
step 152
 C -0.0228468406 -0.0157658321 -0.0072674298
 O -1.1567726844  0.2580410451  0.2405229728
 O  1.1498927469 -0.2070274406 -0.2149674938
3
step 153
 C -0.0228887177 -0.0154677678 -0.0071256996
 O -1.1560362150  0.2601116464  0.2425250140
 O  1.1489722983 -0.2089706265 -0.2168957673
3
step 154
 C -0.0226544710 -0.0151126911 -0.0069794889
 O -1.1552011704  0.2621675813  0.2445288778
 O  1.1477418661 -0.2109352424 -0.2188257872
3
step 155
 C -0.0221546646 -0.0146980740 -0.0068266424
 O -1.1542637890  0.2642073297  0.2465332765
 O  1.1462056251 -0.2129216755 -0.2207578887
3
step 156
 C -0.0214119376 -0.0142194204 -0.0066628201
 O -1.1532189200  0.2662291354  0.2485366742
 O  1.1443754366 -0.2149315705 -0.2226938074
3
step 157
 C -0.0204612072 -0.0136702554 -0.0064814380
 O -1.1520601598  0.2682308915  0.2505371539
 O  1.1422711363 -0.2169677242 -0.2246365909
3
step 158
 C -0.0193481909 -0.0130423941 -0.0062739193
 O -1.1507805180  0.2702103329  0.2525325864
 O  1.1399200920 -0.2190340750 -0.2265905790
3
step 159
 C -0.0181271912 -0.0123263365 -0.0060300877
 O -1.1493732697  0.2721652792  0.2545208512
 O  1.1373563916 -0.2211356500 -0.2285613298
3
step 160
 C -0.0168586421 -0.0115117233 -0.0057386222
 O -1.1478328096  0.2740938694  0.2565000493
 O  1.1346198551 -0.2232784555 -0.2305554897
3
step 161
 C -0.0156061512 -0.0105878989 -0.0053876267
 O -1.1461555698  0.2759948158  0.2584687367
 O  1.1317547306 -0.2254693070 -0.2325805985
3
step 162
 C -0.0144331392 -0.0095445652 -0.0049652978
 O -1.1443409428  0.2778676637  0.2604261649
 O  1.1288080929 -0.2277155952 -0.2346448277
3
step 163
 C -0.0133992181 -0.0083725035 -0.0044606676
 O -1.1423921603  0.2797130395  0.2623725166
 O  1.1258280018 -0.2300249905 -0.2367566570
3
step 164
 C -0.0125564930 -0.0070643350 -0.0038643878
 O -1.1403170771  0.2815328756  0.2643091212
 O  1.1228615087 -0.2324050940 -0.2389245004
3
step 165
 C -0.0119460255 -0.0056152764 -0.0031695119
 O -1.1381288125  0.2833305946  0.2662386374
 O  1.1199526412 -0.2348630529 -0.2411563001
3
step 166
 C -0.0115947365 -0.0040238394 -0.0023722158
 O -1.1358461931  0.2851112386  0.2681651868
 O  1.1171405197 -0.2374051632 -0.2434591184
3
step 167
 C -0.0115130576 -0.0022923927 -0.0014723836
 O -1.1334939287  0.2868815274  0.2700944239
 O  1.1144577706 -0.2400365044 -0.2458387680
3
step 168
 C -0.0116936425 -0.0004274123 -0.0004739261
 O -1.1311024004  0.2886498205  0.2720335373
 O  1.1119293453 -0.2427607141 -0.2482995728
3
step 169
 C -0.0121109910  0.0015605342  0.0006151301
 O -1.1287071617  0.2904260070  0.2739911939
 O  1.1095717394 -0.2455798879 -0.2508442460
3
step 170
 C -0.0127213904  0.0036563103  0.0017823213
 O -1.1263486900  0.2922214085  0.2759774082
 O  1.1073927004 -0.2484941254 -0.2534735177
3
step 171
 C -0.0134653105  0.0058406639  0.0030111842
 O -1.1240711318  0.2940484613  0.2780032606
 O  1.1053917699 -0.2515015506 -0.2561861810
3
step 172
 C -0.0142712749  0.0080911222  0.0042820990
 O -1.1219204915  0.2959202488  0.2800804801
 O  1.1035613786 -0.2545985160 -0.2589793075
3
step 173
 C -0.0150604107  0.0103830244  0.0055732986
 O -1.1199426033  0.2978499701  0.2822209492
 O  1.1018882327 -0.2577798452 -0.2618485093
3
step 174
 C -0.0157517506  0.0126907823  0.0068621020
 O -1.1181807938  0.2998503245  0.2844361197
 O  1.1003549564 -0.2610391622 -0.2647882801
3
step 175
 C -0.0162678743  0.0149892741  0.0081262840
 O -1.1166733798  0.3019328462  0.2867363714
 O  1.0989418248 -0.2643692720 -0.2677923812
3
step 176
 C -0.0165404347  0.0172552561  0.0093454672
 O -1.1154511932  0.3041072391  0.2891303580
 O  1.0976284364 -0.2677625547 -0.2708542331
3
step 177
 C -0.0165150981  0.0194686654  0.0105024169
 O -1.1145353541  0.3063807685  0.2916243968
 O  1.0963951960 -0.2712113355 -0.2739672768
3
step 178
 C -0.0161554692  0.0216136907  0.0115841194
 O -1.1139355212  0.3087577693  0.2942219591
 O  1.0952245126 -0.2747081992 -0.2771252755
3
step 179
 C -0.0154456479  0.0236795071  0.0125825413
 O -1.1136488158  0.3112393245  0.2969233173
 O  1.0941016445 -0.2782462226 -0.2803225323
3
step 180
 C -0.0143911390  0.0256606401  0.0134950071
 O -1.1136595725  0.3138231568  0.2997254054
 O  1.0930151352 -0.2818191423 -0.2835540362
3
step 181
 C -0.0130179011  0.0275570560  0.0143242135
 O -1.1139400209  0.3165037715  0.3026219614
 O  1.0919567818 -0.2854215687 -0.2868156164
3
step 182
 C -0.0113705489  0.0293738909  0.0150779440
 O -1.1144515307  0.3192727499  0.3056037987
 O  1.0909215331 -0.2890490773 -0.2901040009
3
step 183
 C -0.0095103296  0.0311205271  0.0157683994
 O -1.1151460743  0.3221190882  0.3086590314
 O  1.0899074326 -0.2926978561 -0.2934165392
3
step 184
 C -0.0075137899  0.0328100519  0.0164118068
 O -1.1159675306  0.3250294931  0.3117732933
 O  1.0889159218 -0.2963645939 -0.2967511279
3
step 185
 C -0.0054607145  0.0344570275  0.0170257713
 O -1.1168569816  0.3279898223  0.3149313439
 O  1.0879480800 -0.3000462440 -0.3001058272
3
step 186
 C -0.0034321581  0.0360765373  0.0176285300
 O -1.1177542282  0.3309854508  0.3181173588
 O  1.0870046613 -0.3037396723 -0.3034785897
3
step 187
 C -0.0015058281  0.0376829649  0.0182377137
 O -1.1186001765  0.3340019049  0.3213155841
 O  1.0860850114 -0.3074413703 -0.3068669828
3
step 188
 C  0.0002481423  0.0392888140  0.0188691548
 O -1.1193389553  0.3370254318  0.3245109298
 O  1.0851860106 -0.3111471343 -0.3102678861
3
step 189
 C  0.0017706698  0.0409036942  0.0195358619
 O -1.1199196469  0.3400434694  0.3276894692
 O  1.0843011920 -0.3148517721 -0.3136772185
3
step 190
 C  0.0030192374  0.0425329878  0.0202465427
 O -1.1202986137  0.3430453292  0.3308392120
 O  1.0834189264 -0.3185487810 -0.3170896015
3
step 191
 C  0.0039635924  0.0441783864  0.0210063840
 O -1.1204383921  0.3460218164  0.3339496341
 O  1.0825245446 -0.3222303712 -0.3204984738
3
step 192
 C  0.0045886904  0.0458372014  0.0218162430
 O -1.1203089974  0.3489656249  0.3370121442
 O  1.0815994317 -0.3258873411 -0.3238959514
3
step 193
 C  0.0048951793  0.0475022415  0.0226724585
 O -1.1198884618  0.3518714960  0.3400202843
 O  1.0806212029 -0.3295091468 -0.3272728853
3
step 194
 C  0.0048983339  0.0491621324  0.0235671076
 O -1.1191628054  0.3547362301  0.3429697682
 O  1.0795644750 -0.3330841532 -0.3306190947
3
step 195
 C  0.0046264372  0.0508019639  0.0244885242
 O -1.1181258066  0.3575586785  0.3458585195
 O  1.0784018524 -0.3366001148 -0.3339237947
3
step 196
 C  0.0041195209  0.0524035192  0.0254215449
 O -1.1167789219  0.3603397170  0.3486866413
 O  1.0771047940 -0.3400443220 -0.3371757512
3
step 197
 C  0.0034275979  0.0539456019  0.0263478846
 O -1.1151309930  0.3630821331  0.3514562782
 O  1.0756446485 -0.3434037361 -0.3403634261
3
step 198
 C  0.0026075281  0.0554051835  0.0272471625
 O -1.1131973570  0.3657904348  0.3541714473
 O  1.0739941178 -0.3466656610 -0.3434755790
3
step 199
 C  0.0017202509  0.0567583291  0.0280977727
 O -1.1109990148  0.3684706460  0.3568378307
 O  1.0721285034 -0.3498182335 -0.3465017135
3
step 200
 C  0.0008280064  0.0579811430  0.0288777798
 O -1.1085616645  0.3711300642  0.3594625272
 O  1.0700268277 -0.3528508929 -0.3494325027
3
step 201
 C -0.0000085018  0.0590507392  0.0295658533
 O -1.1059145821  0.3737769730  0.3620537517
 O  1.0676728437 -0.3557548220 -0.3522601889
3
step 202
 C -0.0007329286  0.0599462153  0.0301422151
 O -1.1030893776  0.3764203120  0.3646204869
 O  1.0650559108 -0.3585233495 -0.3549789486
3
step 203
 C -0.0012960246  0.0606496071  0.0305895804
 O -1.1001186723  0.3790693136  0.3671720980
 O  1.0621717282 -0.3611523043 -0.3575852131
3
step 204
 C -0.0016581987  0.0611467957  0.0308940620
 O -1.0970347628  0.3817331219  0.3697179276
 O  1.0590229230 -0.3636403173 -0.3600779438
3
step 205
 C -0.0017917821  0.0614283323  0.0310459991
 O -1.0938683551  0.3844204144  0.3722668936
 O  1.0556194852 -0.3659890637 -0.3624588527
3
step 206