8
step 0
 C -0.0000000000 -0.7710249700 -0.9538342225
 C  0.0000000000  0.7710249700 -0.9538342225
 C  0.0000000000 -0.0000000000  0.3093057483
 H -0.9069593081 -1.2747713161 -1.2620019397
 H -0.9069593081  1.2747713161 -1.2620019397
 H  0.9069593081  1.2747713161 -1.2620019397
 H  0.9069593081 -1.2747713161 -1.2620019397
 O -0.0000000000 -0.0000000000  1.5180704324
8
step 1
 C  0.0016556482 -0.7713920547 -0.9530341890
 C -0.0013489264  0.7760597964 -0.9488001679
 C  0.0020628359 -0.0003415510  0.3090760684
 H -0.8954767820 -1.2859843712 -1.2542679706
 H -0.9164571500  1.2818838273 -1.2669547554
 H  0.8982183736  1.2822762052 -1.2658987029
 H  0.9101784756 -1.2808260985 -1.2657406023
 O  0.0011675251 -0.0016757533  1.5173202967
8
step 2
 C  0.0034106859 -0.7717463344 -0.9522347101
 C -0.0028173320  0.7811290602 -0.9437944195
 C  0.0041431406 -0.0006845887  0.3088591220
 H -0.8845241017 -1.2973505585 -1.2466560324
 H -0.9251298955  1.2884766593 -1.2714579694
 H  0.8897432409  1.2899082435 -1.2697938428
 H  0.9130501101 -1.2864970427 -1.2692806028
 O  0.0023446106 -0.0033648044  1.5165733628
8
step 3
 C  0.0053412187 -0.7720715795 -0.9514426092
 C -0.0044996559  0.7862231917 -0.9388815063
 C  0.0062423898 -0.0010281859  0.3086685000
 H -0.8746528052 -1.3089127604 -1.2393190818
 H -0.9322191552  1.2940603255 -1.2750676421
 H  0.8818264076  1.2977155714 -1.2736424680
 H  0.9152661919 -1.2913882582 -1.2724191473
 O  0.0035317488 -0.0050673395  1.5158389301
8
step 4
 C  0.0075009479 -0.7723527463 -0.9506651630
 C -0.0064641676  0.7913269760 -0.9341202584
 C  0.0083624195 -0.0013712166  0.3085164505
 H -0.8662779322 -1.3206559740 -1.2323660051
 H -0.9371844057  1.2982680518 -1.2774126793
 H  0.8746828615  1.3057104844 -1.2773823075
 H  0.9166283644 -1.2951670064 -1.2749923534
 O  0.0047295056 -0.0067836713  1.5151266181
8
step 5
 C  0.0099174487 -0.7725764071 -0.9499098856
 C -0.0087496879  0.7964182767 -0.9295623131
 C  0.0105050146 -0.0017125671  0.3084133331
 H -0.8596313353 -1.3324756561 -1.2258427423
 H -0.9397417446  1.3008801804 -1.2782229799
 H  0.8684300200  1.3138548597 -1.2809179289
 H  0.9170716093 -1.2975857918 -1.2768941249
 O  0.0059384493 -0.0085140122  1.5144462908
8
step 6
 C  0.0125873662 -0.7727316651 -0.9491840833
 C -0.0113611543  0.8014680374 -0.9252502510
 C  0.0126719958 -0.0020506621  0.3083671406
 H -0.8547409344 -1.3441647462 -1.2197351841
 H -0.9398884037  1.3018328569 -1.2773414660
 H  0.8630790406  1.3220590238 -1.2841234249
 H  0.9166786098 -1.2984950679 -1.2780810934
 O  0.0071592355 -0.0102586423  1.5138080933
8
step 7
 C  0.0154783203 -0.7728094498 -0.9484939152
 C -0.0142704782  0.8064396595 -0.9212162370
 C  0.0148650422 -0.0023833981  0.3083831392
 H -0.8514426956 -1.3554183117 -1.2139756781
 H -0.9379056079  1.3012195433 -1.2747335258
 H  0.8585434472  1.3301864910 -1.2868442466
 H  0.9156760431 -1.2978477634 -1.2785768066
 O  0.0083925553 -0.0120178490  1.5132223542
8
step 8
 C  0.0185336091 -0.7728010759 -0.9478433135
 C -0.0174192114  0.8112885172 -0.9174808505
 C  0.0170855236 -0.0027079750  0.3084638396
 H -0.8494199925 -1.3658579665 -1.2084603586
 H -0.9343468765  1.2992838762 -1.2704880761
 H  0.8546604647  1.3380678283 -1.2889073368
 H  0.9144179431 -1.2956952308 -1.2784687563
 O  0.0096391571 -0.0137919222  1.5126995037
8
step 9
 C  0.0216796405 -0.7726963816 -0.9472330363
 C -0.0207237272  0.8159619390 -0.9140523454
 C  0.0193344088 -0.0030207920  0.3086090898
 H -0.8482600567 -1.3750703866 -1.2030705199
 H -0.9300062912  1.2964022272 -1.2648093010
 H  0.8512206682  1.3455200755 -1.2901361871
 H  0.9133549017 -1.2921738770 -1.2778992578
 O  0.0108998476 -0.0155811620  1.5122499272
8
step 10
 C  0.0248350523 -0.7724821869 -0.9466602891
 C -0.0240830905  0.8204003050 -0.9109269256
 C  0.0216122203 -0.0033174031  0.3088164470
 H -0.8475161861 -1.3826519601 -1.1976942043
 H -0.9258593441  1.2930521859 -1.2579957497
 H  0.8480011754  1.3523687228 -1.2903684277
 H  0.9129895858 -1.2874825393 -1.2770499856
 O  0.0121755000 -0.0173858988  1.5118837975
8
step 11
 C  0.0279199397 -0.7721417861 -0.9461190948
 C -0.0273893824  0.8245401835 -0.9080903904
 C  0.0239193033 -0.0035924876  0.3090816547
 H -0.8467658250 -1.3882529863 -1.1922457841
 H -0.9229689322  1.2897620133 -1.2504015893
 H  0.8447967999  1.3584693684 -1.2894749523
 H  0.9138208517 -1.2818509334 -1.2761194940
 O  0.0134669941 -0.0192066231  1.5116108362
8
step 12
 C  0.0308673455 -0.7716548840 -0.9456016185
 C -0.0305426935  0.8283179542 -0.9055219180
 C  0.0262551084 -0.0038400862  0.3093998404
 H -0.8456588759 -1.3916104473 -1.1866760517
 H -0.9223540000  1.2870471858 -1.2423910291
 H  0.8414503520  1.3637246923 -1.2873697234
 H  0.9162777948 -1.2755055332 -1.2753017829
 O  0.0147754186 -0.0210437215  1.5114403055
8
step 13
 C  0.0336292666 -0.7709993741 -0.9450997028
 C -0.0334640585  0.8316770965 -0.9031983112
 C  0.0286192258 -0.0040535321  0.3097659707
 H -0.8439529928 -1.3925784607 -1.1809854239
 H -0.9248365608  1.2853279989 -1.2342688046
 H  0.8378695324  1.3680990847 -1.2840270225
 H  0.9206594378 -1.2686314798 -1.2747558069
 O  0.0161018186 -0.0228978764  1.5113806267
8
step 14
 C  0.0361848113 -0.7701523257 -0.9446067207
 C -0.0361105501  0.8345732865 -0.9010989454
 C  0.0310107835 -0.0042257345  0.3101760510
 H -0.8415364225 -1.3911414486 -1.1752235441
 H -0.9308928464  1.2848608034 -1.2262307181
 H  0.8340415508  1.3716244499 -1.2794824156
 H  0.9270815859 -1.2613463941 -1.2745880642
 O  0.0174473155 -0.0247698058  1.5114393749
8
step 15
 C  0.0385428882 -0.7690910712 -0.9441188354
 C -0.0384834647  0.8369788101 -0.8992090160
 C  0.0334284458 -0.0043493216  0.3106278147
 H -0.8384382448 -1.3874198761 -1.1694902561
 H -0.9405523937  1.2856907151 -1.2183285504
 H  0.8300345515  1.3744007857 -1.2738336182
 H  0.9354490350 -1.2536864305 -1.2748386317
 O  0.0188131272 -0.0266602561  1.5116231070
8
step 16
 C  0.0407417512 -0.7677935779 -0.9436355500
 C -0.0406292660  0.8388838723 -0.8975203330
 C  0.0358704371 -0.0044167998  0.3111211996
 H -0.8348252503 -1.3816651164 -1.1639304204
 H -0.9533776396  1.2876464415 -1.2104703723
 H  0.8259885466  1.3765891763 -1.2672340231
 H  0.9454575528 -1.2456094322 -1.2754806396
 O  0.0202005002 -0.0285699766  1.5119371908
8
step 17
 C  0.0428447233 -0.7662382778 -0.9431594951
 C -0.0426320350  0.8402947452 -0.8960296655
 C  0.0383344555 -0.0044207137  0.3116585817
 H -0.8309845705 -1.3742427034 -1.1587249953
 H -0.9685320981  1.2903778616 -1.2024546424
 H  0.8220951038  1.3783974870 -1.2598800632
 H  0.9566265615 -1.2370142171 -1.2764313688
 O  0.0216106885 -0.0304996690  1.5123856586
8
step 18
 C  0.0449325058 -0.7644039032 -0.9426956991
 C -0.0445994312  0.8412299390 -0.8947356424
 C  0.0408175815 -0.0043538129  0.3122447747
 H -0.8272903665 -1.3656033985 -1.1540781886
 H -0.9849147774  1.2934228597 -1.1940250184
 H  0.8185666537  1.3800592652 -1.2519934239
 H  0.9683561557 -1.2277704041 -1.2775721856
 O  0.0230449532 -0.0324499442  1.5129710946
8
step 19
 C  0.0470929840 -0.7622699348 -0.9422507225
 C -0.0466457915  0.8417160171 -0.8936355861
 C  0.0433162077 -0.0042092293  0.3128868444
 H -0.8241541611 -1.3562424316 -1.1502009935
 H -1.0013211780  1.2962829638 -1.1849282205
 H  0.8155983844  1.3818075169 -1.2437999983
 H  0.9799974842 -1.2177515450 -1.2787728336
 O  0.0245045809 -0.0344212937  1.5136945846
8
step 20
 C  0.0494097677 -0.7598180056 -0.9418319745
 C -0.0488759465  0.8417842738 -0.8927232528
 C  0.0458260068 -0.0039806705  0.3135937911
 H -0.8219616286 -1.3466498151 -1.1472921579
 H -1.0165939359  1.2984904755 -1.1749611829
 H  0.8133279735  1.3838465096 -1.2355085512
 H  0.9909247677 -1.2068650899 -1.2799155912
 O  0.0259909120 -0.0364140709  1.5145557432
8
step 21
 C  0.0519508987 -0.7570341178 -0.9414473423
 C -0.0513721644  0.8414686489 -0.8919877204
 C  0.0483419400 -0.0036626278  0.3143761343
 H -0.8210034737 -1.3372580458 -1.1455186123
 H -1.0297416764  1.2996583895 -1.1640016037
 H  0.8118001657  1.3863260096 -1.2272926822
 H  1.0005996102 -1.1950750794 -1.2809159854
 O  0.0275053636 -0.0384284710  1.5155528178
8
step 22
 C  0.0547592393 -0.7539110631 -0.9411050479
 C -0.0541852561  0.8408045300 -0.8914131003
 C  0.0508583033 -0.0032505952  0.3152454172
 H -0.8214127507 -1.3283963311 -1.1449982097
 H -1.0400211527  1.2995124794 -1.1520226463
 H  0.8109434814  1.3893227047 -1.2192793816
 H  1.0086219225 -1.1824160420 -1.2817382844
 O  0.0290494345 -0.0404645008  1.5166828517
8
step 23
 C  0.0578459629 -0.7504502276 -0.9408135214
 C -0.0573298643  0.8398278011 -0.8909785796
 C  0.0533688076 -0.0027412903  0.3162136385
 H -0.8231229282 -1.3202608974 -1.1457877989
 H -1.0469880097  1.2979093304 -1.1390956938
 H  0.8105645880  1.3928325510 -1.2115461322
 H  1.0147649386 -1.1689983592 -1.2824052004
 O  0.0306246878 -0.0425219378  1.5179418832
8
step 24
 C  0.0611881826 -0.7466621359 -0.9405810946
 C -0.0607834301  0.8385736192 -0.8906584431
 C  0.0558666937 -0.0021328665  0.3172926285
 H -0.8258580552 -1.3129078884 -1.1478788743
 H -1.0505243404  1.2948447978 -1.1253851715
 H  0.8103623204  1.3967755883 -1.2041265185
 H  1.0189935167 -1.1550060579 -1.2830017920
 O  0.0322327144 -0.0446002835  1.5193251587
8
step 25
 C  0.0647318257 -0.7425657424 -0.9404155893
 C -0.0644888681  0.8370749413 -0.8904219531
 C  0.0583446565 -0.0014250857  0.3184936034
 H -0.8291597751 -1.3062697977 -1.1511992447
 H -1.0508487520  1.2904561957 -1.1111412711
 H  0.8099604698  1.4010110754 -1.1970212915
 H  1.0214655963 -1.1406892715 -1.2836752795
 O  0.0338751792 -0.0466986121  1.5208273555
8
step 26
 C  0.0683964802 -0.7381862439 -0.9403234812
 C -0.0683577916  0.8353604252 -0.8902334751
 C  0.0607954653 -0.0006195616  0.3198261378
 H -0.8324413459 -1.3001893117 -1.1556281734
 H -1.0485086996  1.2850162430 -1.0966786810
 H  0.8089487177  1.4053638743 -1.1902163651
 H  1.0225139132 -1.1263461737 -1.2846232944
 O  0.0355536064 -0.0488157539  1.5224427972
8
step 27
 C  0.0720856665 -0.7335530211 -0.9403096221
 C -0.0722782467  0.8334532248 -0.8900529684
 C  0.0632120123  0.0002802445  0.3212979299
 H -0.8350629314 -1.2944632653 -1.1610101789
 H -1.0443494691  1.2789187311 -1.0823592379
 H  0.8069321122  1.4096517967 -1.1836976347
 H  1.0226095009 -1.1123027185 -1.2860809858
 O  0.0372694163 -0.0509502630  1.5241656944
8
step 28
 C  0.0756983938 -0.7286978853 -0.9403773303
 C -0.0761244559  0.8313709278 -0.8898370840
 C  0.0655875040  0.0012689290  0.3229143915
 H -0.8364092872 -1.2888866612 -1.1671725436
 H -1.0394494979  1.2726491993 -1.0685664779
 H  0.8035776349  1.4137136063 -1.1774652240
 H  1.0223047250 -1.0988857301 -1.2882988123
 O  0.0390239297 -0.0531004374  1.5259903839
8
step 29
 C  0.0791415002 -0.7236542187 -0.9405291563
 C -0.0797696645  0.8291273933 -0.8895410866
 C  0.0679156642  0.0023391722  0.3246784604
 H -0.8359594363 -1.2832905835 -1.1739424163
 H -1.0350124357  1.2667364954 -1.0556748450
 H  0.7986538113  1.4174338593 -1.1715441187
 H  1.0221598150 -1.0863921562 -1.2915142511
 O  0.0408183730 -0.0552643956  1.5279115751
8
step 30
 C  0.0823414164 -0.7184570179 -0.9407682152
 C -0.0831018135  0.8267367525 -0.8891213772
 C  0.0701908840  0.0034818439  0.3265905594
 H -0.8333412018 -1.2775707989 -1.1811618774
 H -1.0322146880  1.2616843788 -1.0440163120
 H  0.7920598318  1.4207623123 -1.1659907411
 H  1.0226612707 -1.0750580482 -1.2959198556
 O  0.0426538886 -0.0574401673  1.5299245826
8
step 31
 C  0.0852532149 -0.7131432500 -0.9410996188
 C -0.0860397215  0.8242189407 -0.8885381277
 C  0.0724084009  0.0046860861  0.3286484341
 H -0.8283668585 -1.2717065455 -1.1887019092
 H -1.0320245702  1.2578897707 -1.0338470485
 H  0.7838403582  1.4237268567 -1.1608967496
 H  1.0241457526 -1.0650315169 -1.3016306586
 O  0.0445314952 -0.0596258112  1.5320254969
8
step 32
 C  0.0878689488 -0.7077530736 -0.9415320154
 C -0.0885496708  0.8216058009 -0.8877576191
 C  0.0745639758  0.0059398804  0.3308479206
 H -0.8210541412 -1.2657692465 -1.1964660000
 H -1.0350341726  1.2555688771 -1.0253335207
 H  0.7741915458  1.4264365553 -1.1563830631
 H  1.0267470685 -1.0563582041 -1.3086659574
 O  0.0464522012 -0.0618194167  1.5342113324
8
step 33
 C  0.0902166137 -0.7023290571 -0.9420775759
 C -0.0906508245  0.8189449246 -0.8867532956
 C  0.0766541584  0.0072297713  0.3331820481
 H -0.8116227295 -1.2599232562 -1.2044016636
 H -1.0413471421  1.2547055985 -1.0185361857
 H  0.7634406195  1.4290776392 -1.1525993915
 H  1.0303766711 -1.0489761947 -1.3169313480
 O  0.0484168336 -0.0640191583  1.5364799709
8
step 34
 C  0.0923586253 -0.6969161113 -0.9427516251
 C -0.0924153134  0.8163007225 -0.8855062908
 C  0.0786759741  0.0085416420  0.3356417607
 H -0.8004782695 -1.2544160823 -1.2124969861
 H -1.0505675765  1.2550499579 -1.0134238250
 H  0.7520174853  1.4318961397 -1.1497096108
 H  1.0347460072 -1.0427284499 -1.3262292349
 O  0.0504261064 -0.0662233974  1.5388301081
8
step 35
 C  0.0943833622 -0.6915602381 -0.9435710795
 C -0.0939560556  0.8137521315 -0.8840049136
 C  0.0806268421  0.0098606702  0.3382156610
 H -0.7881740194 -1.2495589381 -1.2207762474
 H -1.0618880431  1.2561610481 -1.0098921273
 H  0.7404053563  1.4351694615 -1.1478777401
 H  1.0394222283 -1.0373857441 -1.3362774740
 O  0.0524805928 -0.0684305744  1.5412610442
8
step 36
 C  0.0963936359 -0.6863073984 -0.9445525769
 C -0.0954080994  0.8113880367 -0.8822441060
 C  0.0825045532  0.0111716151  0.3408900530
 H -0.7753531747 -1.2456956190 -1.2292885536
 H -1.0742471075  1.2574824687 -1.0077877360
 H  0.7290797474  1.4391676199 -1.1472493204
 H  1.0439045796 -1.0326758715 -1.3467405404
 O  0.0545807278 -0.0706392611  1.5437724484
8
step 37
 C  0.0984934286 -0.6812029186 -0.9457108533
 C -0.0969080049  0.8093022029 -0.8802250846
 C  0.0843072847  0.0124590429  0.3436490707
 H -0.7626747870 -1.2431606485 -1.2380891123
 H -1.0865070827  1.2584271229 -1.0069314551
 H  0.7184440067  1.4441084658 -1.1479309718
 H  1.0477050062 -1.0283142241 -1.3572654416
 O  0.0567268389 -0.0728481769  1.5463640876
8
step 38
 C  0.1007746774 -0.6762916153 -0.9470577412
 C -0.0985756508  0.8075887563 -0.8779552384
 C  0.0860336552  0.0137075228  0.3464749071
 H -0.7507313906 -1.2422303542 -1.2472147551
 H -1.0976111661  1.2584521026 -1.0071371059
 H  0.7087729982  1.4501149009 -1.1499712125
 H  1.0504196252 -1.0240313642 -1.3675166168
 O  0.0589191813 -0.0750561878  1.5490355298
8
step 39
 C  0.1033059051 -0.6716183433 -0.9486017915
 C -0.1005011626  0.8063383107 -0.8754480534
 C  0.0876827934  0.0149017976  0.3493481212
 H -0.7399718550 -1.2430743574 -1.2566576320
 H -1.1066996959  1.2571140135 -1.0082254294
 H  0.7001768621  1.4571837622 -1.1533461359
 H  1.0517832150 -1.0195951524 -1.3772057748
 O  0.0611579630 -0.0772622821  1.5517858154
8
step 40
 C  0.1061242718 -0.6672282639 -0.9503481633
 C -0.1027377459  0.8056341808 -0.8727227206
 C  0.0892543865  0.0160269271  0.3522479780
 H -0.7306454244 -1.2457176776 -1.2663431268
 H -1.1131840598  1.2541039195 -1.0100340154
 H  0.6925929041  1.4651746163 -1.1579531081
 H  1.0517040107 -1.0148266241 -1.3861145608
 O  0.0634433473 -0.0794655149  1.5546130933
8
step 41
 C  0.1092321073 -0.6631660627 -0.9522982885
 C -0.1052997846  0.8055481152 -0.8698031625
 C  0.0907486859  0.0170684119  0.3551527902
 H -0.7227798436 -1.2500232173 -1.2761184114
 H -1.1167867461  1.2492657276 -1.0124246589
 H  0.6858066642  1.4738220531 -1.1636141559
 H  1.0502792001 -1.0096096982 -1.3941093155
 O  0.0657754339 -0.0816649265  1.5575142309
8
step 42
 C  0.1125982041 -0.6594737070 -0.9544489924
 C -0.1081648602  0.8061354669 -0.8667164032
 C  0.0921664610  0.0180123108  0.3580402494
 H -0.7161979686 -1.2557000123 -1.2857558151
 H -1.1175573563  1.2426023983 -1.0152892567
 H  0.6794959769  1.4827690025 -1.1700886596
 H  1.0477923999 -1.0038949317 -1.4011476853
 O  0.0681542269 -0.0838594475  1.5604844228
8
step 43
 C  0.1161641798 -0.6561869263 -0.9567909373
 C -0.1112791425  0.8074302831 -0.8634903915
 C  0.0935088841  0.0188452121  0.3608873106
 H -0.7105668697 -1.2623349307 -1.2949679175
 H -1.1158692262  1.2342733221 -1.0185567750
 H  0.6732881139  1.4916122331 -1.1770900451
 H  1.0446923255 -0.9976977165 -1.4072779024
 O  0.0705795696 -0.0860476760  1.5635168178
8
step 44
 C  0.1198506074 -0.6533314897 -0.9593078683
 C -0.1145613100  0.8094415325 -0.8601518011
 C  0.0947775057  0.0195547876  0.3636718846
 H -0.7054658335 -1.2694445201 -1.3034454604
 H -1.1124011894  1.2245787344 -1.0221902848
 H  0.6668153841  1.4999580828 -1.1843182095
 H  1.0415598933 -0.9910882318 -1.4126235983
 O  0.0730511853 -0.0882281637  1.5666022912
8
step 45
 C  0.1235707929 -0.6509195650 -0.9619752764
 C -0.1179136215  0.8121507442 -0.8567237181
 C  0.0959740074  0.0201295500  0.3663718154
 H -0.7004575392 -1.2765278953 -1.3108793023
 H -1.1080876221  1.2139366795 -1.0261954096
 H  0.6597679541  1.5074654143 -1.1914731670
 H  1.0390479874 -0.9841768953 -1.4173675599
 O  0.0755686430 -0.0903990296  1.5697292317
8
step 46
 C  0.1272396361 -0.6489482059 -0.9647613793
 C -0.1212296613  0.8155131866 -0.8532243969
 C  0.0971001944  0.0205593042  0.3689666361
 H -0.6951519064 -1.2831219641 -1.3170006783
 H -1.1040385840  1.2028398519 -1.0306080810
 H  0.6519310837  1.5138880745 -1.1982856593
 H  1.0378150780 -0.9770916564 -1.4217162848
 O  0.0781313835 -0.0925582115  1.5728835239
8
step 47
 C  0.1307854315 -0.6473990483 -0.9676287143
 C -0.1244077944  0.8194614721 -0.8496668048
 C  0.0981578741  0.0208352492  0.3714378010
 H -0.6892540593 -1.2888446220 -1.3216041893
 H -1.1014150217  1.1917991862 -1.0354819198
 H  0.6432110958  1.5191011116 -1.2045337896
 H  1.0384434011 -0.9699521836 -1.4258628232
 O  0.0807387707 -0.0947034584  1.5760486326
8
step 48
 C  0.1341593835 -0.6462395590 -0.9705367506
 C -0.1273659360  0.8239117195 -0.8460596639
 C  0.0991488678  0.0209500842  0.3737693849
 H -0.6825963246 -1.2934269840 -1.3245660903
 H -1.1012671744  1.1812769050 -1.0408625052
 H  0.6336482620  1.5231158996 -1.2100575220
 H  1.0413594840 -0.9628448791 -1.4299467459
 O  0.0833900839 -0.0968323636  1.5792057748
8
step 49
 C  0.1373425379 -0.6454249679 -0.9734446260
 C -0.1300564671  0.8287707458 -0.8424096345
 C  0.1000750614  0.0208981133  0.3759486526
 H -0.6751546190 -1.2967335062 -1.3258544873
 H -1.1043594716  1.1716221813 -1.0467535342
 H  0.6234170412  1.5260828600 -1.2147676644
 H  1.0467698843 -0.9558042149 -1.4340210022
 O  0.0860845047 -0.0989424194  1.5823341706
8
step 50
 C  0.1403482814 -0.6449005528 -0.9763133721
 C -0.1324768814  0.8339429504 -0.8387240866
 C  0.1009384675  0.0206754599  0.3779668327
 H -0.6670509299 -1.2987708541 -1.3255342255
 H -1.1110254720  1.1630261533 -1.0530810696
 H  0.6128127851  1.5282821135 -1.2186503814
 H  1.0546280008 -0.9488050052 -1.4380329701
 O  0.0888210999 -0.1010311528  1.5854113218
8
step 51
 C  0.1432232451 -0.6446021395 -0.9791063396
 C -0.1346758009  0.8393337820 -0.8350133804
 C  0.1017413779  0.0202797600  0.3798180358
 H -0.6585421169 -1.2996830136 -1.3237544604
 H -1.1210930931  1.1555157789 -1.0596761012
 H  0.6022269387  1.5300973385 -1.2217546361
 H  1.0646324966 -0.9417703054 -1.4418295554
 O  0.0915987468 -0.1030959215  1.5884134527
8
step 52
 C  0.1460389870 -0.6444588980 -0.9817896231
 C -0.1367442609  0.8448534757 -0.8312924355
 C  0.1024864370  0.0197107485  0.3815009476
 H -0.6499958402 -1.2997369491 -1.3207453538
 H -1.1339185126  1.1489781413 -1.0662665961
 H  0.5921040675  1.5319806096 -1.2241851273
 H  1.0762747874 -0.9345876323 -1.4451760866
 O  0.0944160853 -0.1051342719  1.5913157397
8
step 53
 C  0.1488852220 -0.6443936041 -0.9843305954
 C -0.1388036641  0.8504169053 -0.8275804168
 C  0.1031766145  0.0189698247  0.3830165463
 H -0.6418502965 -1.2992906827 -1.3167887919
 H -1.1485002890  1.1432156565 -1.0725055434
 H  0.5828891428  1.5343979037 -1.2260697193
 H  1.0889017626 -0.9271348974 -1.4477950109
 O  0.0972716112 -0.1071437240  1.5940930082
8
step 54
 C  0.1518559714 -0.6443268226 -0.9866978509
 C -0.1409838279  0.8559460918 -0.8239004109
 C  0.1038152603  0.0180605715  0.3843697555
 H -0.6345609355 -1.2987501964 -1.3121987459
 H -1.1636549037  1.1380026873 -1.0780042222
 H  0.5749650488  1.5377721737 -1.2275333599
 H  1.1018048159 -0.9193034910 -1.4494056349
 O  0.1001636342 -0.1091221176  1.5967199852
8
step 55
 C  0.1550392654 -0.6441792917 -0.9888602838
 C -0.1434055494  0.8613708159 -0.8202780040
 C  0.1044059848  0.0169883567  0.3855667348
 H -0.6285347616 -1.2985118583 -1.3072813727
 H -1.1781841523  1.1331364187 -1.0823808832
 H  0.5685937154  1.5424203624 -1.2286558337
 H  1.1142956099 -0.9110200969 -1.4497648549
 O  0.1030904230 -0.1110674365  1.5991721139
8
step 56
 C  0.1585034125 -0.6438781670 -0.9907882396
 C -0.1461623472  0.8666321644 -0.8167407083
 C  0.1049525645  0.0157607107  0.3866165163
 H -0.6240631254 -1.2989032006 -1.3023098291
 H -1.1910255336  1.1284664442 -1.0852956485
 H  0.5638699731  1.5485091157 -1.2294477479
 H  1.1257830837 -0.9022577831 -1.4486965330
 O  0.1060502362 -0.1129781403  1.6014257808
8
step 57
 C  0.1622896829 -0.6433600140 -0.9924533935
 C -0.1493123678  0.8716825391 -0.8133163048
 C  0.1054588763  0.0143870522  0.3875281930
 H -0.6212632004 -1.3001275508 -1.2974902008
 H -1.2013468763  1.1239120786 -1.0864849566
 H  0.5607012647  1.5560261121 -1.2298259106
 H  1.1358214446 -0.8930441695 -1.4461146141
 O  0.1090413436 -0.1148529643  1.6034590500
8
step 58
 C  0.1664047362 -0.6425753793 -0.9938297938
 C -0.1528720535  0.8764865765 -0.8100313210
 C  0.1059287015  0.0128789051  0.3883120170
 H -0.6200436790 -1.3022300002 -1.2929520953
 H -1.2086136381  1.1194635535 -1.0857774029
 H  0.5588163015  1.5647869284 -1.2296194006
 H  1.1441510829 -0.8834592321 -1.4420322937
 O  0.1120620435 -0.1166911390  1.6052518271
8
step 59
 C  0.1708194934 -0.6414896321 -0.9948936032
 C -0.1568170214  0.8810187232 -0.8069082728
 C  0.1063655433  0.0112498016  0.3889781633
 H -0.6201028705 -1.3050896454 -1.2887460764
 H -1.2126191768  1.1151782867 -1.0831056878
 H  0.5578016108  1.5744650715 -1.2285868288
 H  1.1507154296 -0.8736307402 -1.4365642470
 O  0.1151106829 -0.1184923230  1.6067862852
8
step 60
 C  0.1754718642 -0.6400819437 -0.9956225503
 C -0.1610857269  0.8852596949 -0.8039625986
 C  0.1067725093  0.0095153050  0.3895362543
 H -0.6209617117 -1.3084413813 -1.2848567710
 H -1.2134954973  1.1111733052 -1.0785102680
 H  0.5571567949  1.5846419331 -1.2264486614
 H  1.1556619159 -0.8637254965 -1.4299202749
 O  0.1181856061 -0.1202566064  1.6080471372
8
step 61
 C  0.1802733721 -0.6383425003 -0.9959952983
 C -0.1655853348  0.8891924355 -0.8011996693
 C  0.1071521828  0.0076929550  0.3899949436
 H -0.6220238340 -1.3119207217 -1.2812249212
 H -1.2117063143  1.1076155407 -1.0721368844
 H  0.5563569410  1.5948646279 -1.2229251608
 H  1.1593246838 -0.8539374868 -1.4223909536
 O  0.1212851491 -0.1219845044  1.6090218998
8
step 62
 C  0.1851187457 -0.6362689039 -0.9959912372
 C -0.1701992272  0.8927984841 -0.7986126043
 C  0.1075065178  0.0058021388  0.3903616433
 H -0.6226495518 -1.3151205103 -1.2777724650
 H -1.2080195273  1.1047099910 -1.0642270273
 H  0.5549120766  1.6047017168 -1.2177723864
 H  1.1621873824 -0.8444733137 -1.4143252797
 O  0.1244076646 -0.1236769531  1.6097011257
8
step 63
 C  0.1898973338 -0.6338627581 -0.9955911289
 C -0.1747962273  0.8960554669 -0.7961815327
 C  0.1078368067  0.0038639064  0.3906424803
 H -0.6222301170 -1.3176481089 -1.2744257721
 H -1.2034509846  1.1026845479 -1.0550991123
 H  0.5524171861  1.6137903712 -1.2108113986
 H  1.1648252195 -0.8355353335 -1.4061004908
 O  0.1275515509 -0.1253353184  1.6100785990
8
step 64
 C  0.1945052875 -0.6311271024 -0.9947787457
 C -0.1792421369  0.8989361275 -0.7938746630
 C  0.1081437051  0.0019007092  0.3908424912
 H -0.6202520109 -1.3191748297 -1.2711339863
 H -1.1991696822  1.1017698298 -1.0451185508
 H  0.5485900321  1.6218722685 -1.2019484370
 H  1.1678285290 -0.8273034130 -1.3980856824
 O  0.1307152871 -0.1269614095  1.6101515030
8
step 65
 C  0.1988573937 -0.6280649002 -0.9935432383
 C -0.1834139355  0.9014089555 -0.7916511387
 C  0.1084272922 -0.0000639168  0.3909659852
 H -0.6163457472 -1.3194734317 -1.2678814983
 H -1.1963594465  1.1021731115 -1.0346570511
 H  0.5432962871  1.6288178228 -1.1911857212
 H  1.1717153965 -0.8199170430 -1.3906030077
 O  0.1338974682 -0.1285574851  1.6099205530
8
step 66
 C  0.2028972236 -0.6246784553 -0.9918816884
 C -0.1872158224  0.9034402291 -0.7894652179
 C  0.1086871476 -0.0020056892  0.3910170283
 H -0.6103176765 -1.3184427950 -1.2646950153
 H -1.1960464226  1.1040475427 -1.0240458869
 H  0.5365622426  1.6346391983 -1.1786235388
 H  1.1768472376 -0.8134602673 -1.3838924629
 O  0.1370968203 -0.1301262487  1.6093900953
8
step 67
 C  0.2066041060 -0.6209694622 -0.9898011655
 C -0.1905944910  0.9049970505 -0.7872708634
 C  0.1089224160 -0.0038999100  0.3909999605
 H -0.6021651950 -1.3161203413 -1.2616460869
 H -1.1989221968  1.1074609929 -1.0135329561
 H  0.5285746368  1.6394919068 -1.1644542076
 H  1.1833649653 -0.8079520253 -1.3780871446
 O  0.1403121890 -0.1316708271  1.6085681750
8
step 68
 C  0.2099956235 -0.6169394400 -0.9873197415
 C -0.1935495612  0.9060508526 -0.7850256576
 C  0.1091318325 -0.0057217878  0.3909198727
 H -0.5920758918 -1.3126826622 -1.2588496415
 H -1.2052088774  1.1123717098 -1.0032559027
 H  0.5196659509  1.6436634630 -1.1489480114
 H  1.1911615338 -0.8033437814 -1.3732044646
 O  0.1435425083 -0.1331947330  1.6074665708
8
step 69
 C  0.2131249699 -0.6125904945 -0.9844662596
 C -0.1961352397  0.9065809339 -0.7826932646
 C  0.1093136985 -0.0074467696  0.3907829881
 H -0.5804102335 -1.3084337530 -1.2564584424
 H -1.2146103643  1.1186183183 -0.9932401122
 H  0.5102828522  1.6475464152 -1.1324309455
 H  1.1998983169 -0.7995248268 -1.3691551196
 O  0.1467867703 -0.1347018147  1.6061007843
8
step 70
 C  0.2160734381 -0.6079265723 -0.9812790845
 C -0.1984515961  0.9065778659 -0.7802443643
 C  0.1094658162 -0.0090509083  0.3905969246
 H -0.5676665972 -1.3037792559 -1.2546527837
 H -1.2263679003  1.1259282529 -0.9834215286
 H  0.5009365156  1.6515933215 -1.1152547349
 H  1.2090610997 -0.7963339756 -1.3657671411
 O  0.1500440174 -0.1361962006  1.6044899684
8
step 71
 C  0.2189391786 -0.6029554825 -0.9778043680
 C -0.2006272905  0.9060468683 -0.7776566138
 C  0.1095854089 -0.0105112776  0.3903708352
 H -0.5544280752 -1.2991852192 -1.2536245970
 H -1.2394007013  1.1339428787 -0.9736850898
 H  0.4921370990  1.6562540312 -1.0977614725
 H  1.2180417187 -0.7935752303 -1.3628190585
 O  0.1533133723 -0.1376822441  1.6026567757
8
step 72
 C  0.2218239204 -0.5976918464 -0.9740944218
 C -0.2027982221  0.9050111744 -0.7749143119
 C  0.1096690599 -0.0118064179  0.3901154407
 H -0.5412934022 -1.2951220033 -1.2535557857
 H -1.2524867045  1.1422526997 -0.9639057838
 H  0.4843203097  1.6619012535 -1.0802479356
 H  1.2262275465 -0.7910347310 -1.3600753320
 O  0.1565940974 -0.1391644707  1.6006271254
8
step 73
 C  0.2248195616 -0.5921607536 -0.9702065779
 C -0.2050871614  0.9035149347 -0.7720080545
 C  0.1097127019 -0.0129167801  0.3898429614
 H -0.5287994446 -1.2919982917 -1.2545921630
 H -1.2644369067  1.1504347064 -0.9539820749
 H  0.4777796563  1.6687572383 -1.0629367833
 H  1.2330833635 -0.7884968133 -1.3573185203
 O  0.1598856622 -0.1406475223  1.5984298980
8
step 74
 C  0.2279965057 -0.5864013822 -0.9662025417
 C -0.2075881898  0.9016246555 -0.7689341929
 C  0.1097116734 -0.0138251341  0.3895669510
 H -0.5173481687 -1.2900955472 -1.2568165619
 H -1.2742336524  1.1580859157 -0.9438573538
 H  0.4726202551  1.6768388858 -1.0459616376
 H  1.2382159643 -0.7857578768 -1.3543749761
 O  0.1631877876 -0.1421360919  1.5960965764
8
step 75
 C  0.2313953674 -0.5804694272 -0.9621478860
 C -0.2103577026  0.8994280323 -0.7656937558
 C  0.1096608452 -0.0145169215  0.3893020185
 H -0.5071537582 -1.2895170671 -1.2602266033
 H -1.2811240355  1.1648504541 -0.9335300842
 H  0.4687462937  1.6859369535 -1.0293696865
 H  1.2414177444 -0.7826375543 -1.3511329897
 O  0.1665004524 -0.1436348450  1.5936608465
8
step 76
 C  0.2350231341 -0.5744371924 -0.9581111679
 C -0.2134117748  0.8970295637 -0.7622907258
 C  0.1095548052 -0.0149805542  0.3890634313
 H -0.4982227786 -1.2901650333 -1.2647230144
 H -1.2846737402  1.1704401853 -0.9230556770
 H  0.4658850220  1.6956363966 -1.0131401200
 H  1.2426893678 -0.7789871168 -1.3475535359
 O  0.1698238618 -0.1451483313  1.5911581621
8
step 77
 C  0.2388540654 -0.5683907419 -0.9541622830
 C -0.2167283980  0.8945432717 -0.7587299241
 C  0.1093880860 -0.0152076651  0.3888666023
 H -0.4903718656 -1.2917525297 -1.2701124827
 H -1.2847915945  1.1746500294 -0.9125432300
 H  0.4636396688  1.7053729360 -0.9972121231
 H  1.2422429475 -0.7746950653 -1.3436740630
 O  0.1731583959 -0.1466808958  1.5886252670
8
step 78
 C  0.2428347692 -0.5624243981 -0.9503700328
 C -0.2202527063  0.8920837132 -0.7550149756
 C  0.1091554144 -0.0151933248  0.3887265004
 H -0.4832768621 -1.2938477676 -1.2761253154
 H -1.2817331954  1.1773688591 -0.9021492677
 H  0.4615570557  1.7145116624 -0.9815145404
 H  1.2404867122 -0.7696895836 -1.3396054044
 O  0.1765045574 -0.1482366007  1.5860996692
8
step 79
 C  0.2468923397 -0.5566336743 -0.9467992919
 C -0.2239037246  0.8897568548 -0.7511468075
 C  0.1088519675 -0.0149362261  0.3886570522
 H -0.4765396951 -1.2959393679 -1.2824443412
 H -1.2760865953  1.1785856534 -0.8920694201
 H  0.4591952626  1.7224307486 -0.9659908948
 H  1.2379910848 -0.7639372010 -1.3355213737
 O  0.1798629366 -0.1498191670  1.5836190693
8
step 80
 C  0.2509443307 -0.5511080753 -0.9435083989
 C -0.2275820520  0.8876522695 -0.7471229617
 C  0.1084736207 -0.0144388352  0.3886706280
 H -0.4697576319 -1.2975081907 -1.2887392737
 H -1.2687369117  1.1783890062 -0.8825280397
 H  0.4561810119  1.7285967082 -0.9506166155
 H  1.2354357673 -0.7574369596 -1.3316404377
 O  0.1832341973 -0.1514319404  1.5812207592
8
step 81