8
step 0
 C -0.0000000000 -0.7710249700 -0.9538342225
 C  0.0000000000  0.7710249700 -0.9538342225
 C  0.0000000000 -0.0000000000  0.3093057483
 H -0.9069593081 -1.2747713161 -1.2620019397
 H -0.9069593081  1.2747713161 -1.2620019397
 H  0.9069593081  1.2747713161 -1.2620019397
 H  0.9069593081 -1.2747713161 -1.2620019397
 O -0.0000000000 -0.0000000000  1.5180704324
8
step 1
 C  0.0016552317 -0.7713919624 -0.9530343903
 C -0.0013485871  0.7760585297 -0.9488014344
 C  0.0020623169 -0.0003414651  0.3090761262
 H -0.8954796708 -1.2859815502 -1.2542699163
 H -0.9164547605  1.2818820379 -1.2669535094
 H  0.8982205727  1.2822743171 -1.2658977226
 H  0.9101776657 -1.2808245752 -1.2657396617
 O  0.0011672314 -0.0016753317  1.5173204855
8
step 2
 C  0.0034098282 -0.7717461530 -0.9522351125
 C -0.0028166238  0.7811265184 -0.9437969455
 C  0.0041420982 -0.0006844164  0.3088592344
 H -0.8845297468 -1.2973448763 -1.2466598939
 H -0.9251253178  1.2884732069 -1.2714555895
 H  0.8897475731  1.2899044354 -1.2697918820
 H  0.9130485756 -1.2864940919 -1.2692787711
 O  0.0023440207 -0.0033639579  1.5165737394
8
step 3
 C  0.0053398767 -0.7720713163 -0.9514432107
 C -0.0044985273  0.7862193689 -0.9388852688
 C  0.0062408191 -0.0010279271  0.3086686607
 H -0.8746609393 -1.3089041630 -1.2393247941
 H -0.9322127665  1.2940554494 -1.2750643504
 H  0.8818327367  1.2977098001 -1.2736395372
 H  0.9152640907 -1.2913840738 -1.2724165244
 O  0.0035308603 -0.0050660646  1.5158394914
8
step 4
 C  0.0074990665 -0.7723524119 -0.9506659594
 C -0.0064625514  0.7913218700 -0.9341252198
 C  0.0083603149 -0.0013708711  0.3085166500
 H -0.8662881922 -1.3206444090 -1.2323734811
 H -0.9371767055  1.2982620731 -1.2774087901
 H  0.8746910025  1.3057027059 -1.2773784326
 H  0.9166258991 -1.2951618649 -1.2749890797
 O  0.0047283158 -0.0067819646  1.5151273585
8
step 5
 C  0.0099149674 -0.7725760143 -0.9499108703
 C -0.0087475082  0.7964118900 -0.9295684226
 C  0.0105023699 -0.0017121349  0.3084135598
 H -0.8596433121 -1.3324610981 -1.2258518905
 H -0.9397332980  1.3008734699 -1.2782188777
 H  0.8684397642  1.3138450423 -1.2809131599
 H  0.9170689967 -1.2975800323 -1.2768903678
 O  0.0059369555 -0.0085118701  1.5144472020
8
step 6
 C  0.0125842267 -0.7727312276 -0.9491852472
 C -0.0113583338  0.8014603777 -0.9252574470
 C  0.0126688040 -0.0020501438  0.3083673810
 H -0.8547542262 -1.3441472273 -1.2197459234
 H -0.9398797867  1.3018258044 -1.2773375806
 H  0.8630901810  1.3220471617 -1.2841178448
 H  0.9166760481 -1.2984890693 -1.2780770325
 O  0.0071574348 -0.0102560612  1.5138091646
8
step 7
 C  0.0154744731 -0.7728089810 -0.9484952470
 C -0.0142669446  0.8064307411 -0.9212244487
 C  0.0148612957 -0.0023827945  0.3083833789
 H -0.8514569528 -1.3553979491 -1.2139879487
 H -0.9378973508  1.3012125282 -1.2747303054
 H  0.8585558000  1.3301726155 -1.2868379791
 H  0.9156736810 -1.2978419205 -1.2785726174
 O  0.0083904447 -0.0120148252  1.5132235721
8
step 8
 C  0.0185290187 -0.7728005888 -0.9478448012
 C -0.0174149043  0.8112783621 -0.9174900016
 C  0.0170812141 -0.0027072877  0.3084640642
 H -0.8494349485 -1.3658349812 -1.2084741269
 H -0.9343394057  1.2992772363 -1.2704859576
 H  0.8546738838  1.3380520148 -1.2889005512
 H  0.9144158509 -1.2956899303 -1.2784645947
 O  0.0096367335 -0.0137884518  1.5127008523
8
step 9
 C  0.0216742888 -0.7726958892 -0.9472346678
 C -0.0207186040  0.8159505792 -0.9140623571
 C  0.0193295276 -0.0030200239  0.3086092855
 H -0.8482755417 -1.3750451096 -1.2030857767
 H -0.9299998690  1.2963962284 -1.2648086781
 H  0.8512350523  1.3455024452 -1.2901290984
 H  0.9133530479 -1.2921694754 -1.2778952449
 O  0.0108971077 -0.0155772409  1.5122513878
8
step 10
 C  0.0248289401 -0.7724817041 -0.9466620543
 C -0.0240771311  0.8203877850 -0.9109377208
 C  0.0216067585 -0.0033165584  0.3088166011
 H -0.8475321250 -1.3826248247 -1.1977109582
 H -0.9258540101  1.2930469918 -1.2579969423
 H  0.8480164671  1.3523494380 -1.2903612916
 H  0.9129878211 -1.2874793442 -1.2770461961
 O  0.0121724402 -0.0173815229  1.5118853490
8
step 11
 C  0.0279130860 -0.7721413313 -0.9461209865
 C -0.0273825935  0.8245265628 -0.9081018972
 C  0.0239132517 -0.0035915723  0.3090817564
 H -0.8467822246 -1.3882245095 -1.1922640520
 H -0.9229644578  1.2897576629 -1.2504048188
 H  0.8448129799  1.3584486237 -1.2894680557
 H  0.9138189043 -1.2818491925 -1.2761159489
 O  0.0134636109 -0.0192017880  1.5116124555
8
step 12
 C  0.0308597847 -0.7716544810 -0.9456036335
 C -0.0305351084  0.8283033084 -0.9055340722
 C  0.0262484579 -0.0038391085  0.3093998808
 H -0.8456758045 -1.3915812036 -1.1866958489
 H -0.9223498722  1.2870435840 -1.2423964073
 H  0.8414674276  1.3637027022 -1.2873633713
 H  0.9162752818 -1.2755054322 -1.2752984489
 O  0.0147717080 -0.0210384227  1.5114419673
8
step 13
 C  0.0336210441 -0.7709990530 -0.9451018415
 C -0.0334557341  0.8316615170 -0.9032110579
 C  0.0286119674 -0.0040525023  0.3097659427
 H -0.8439705565 -1.3925490511 -1.1810067537
 H -0.9248320136  1.2853249309 -1.2342763441
 H  0.8378875245  1.3680760678 -1.2840215227
 H  0.9206558938 -1.2686331514 -1.2747526046
 O  0.0160977765 -0.0228921090  1.5113823039
8
step 14
 C  0.0361759777 -0.7701521235 -0.9446089866
 C -0.0361015580  0.8345568778 -0.9011122375
 C  0.0310029083 -0.0042246657  0.3101759485
 H -0.8415547393 -1.3911124670 -1.1752463892
 H -0.9308869458  1.2848579736 -1.2262403643
 H  0.8340604782  1.3716006130 -1.2794780621
 H  0.9270765080 -1.2613499353 -1.2745848825
 O  0.0174429375 -0.0247635648  1.5114410395
8
step 15
 C  0.0385334921 -0.7690910322 -0.9441212331
 C -0.0384738791  0.8369616863 -0.8992228116
 C  0.0334199454 -0.0043482293  0.3106276324
 H -0.8384574181 -1.3873918756 -1.1695145709
 H -0.9405441680  1.2856878036 -1.2183402285
 H  0.8300544151  1.3743763074 -1.2738306750
 H  0.9354419386 -1.2536919249 -1.2748353481
 O  0.0188084086 -0.0266535362  1.5116247295
8
step 16
 C  0.0407318320 -0.7677937536 -0.9436380845
 C -0.0406191504  0.8388661516 -0.8975345930
 C  0.0358613033 -0.0044157021  0.3111209316
 H -0.8348453420 -1.3816385775 -1.1639561256
 H -0.9533662236  1.2876431650 -1.2104840351
 H  0.8260093155  1.3765641923 -1.2672327105
 H  0.9454480287 -1.2456169714 -1.2754771399
 O  0.0201954361 -0.0285627722  1.5119387414
8
step 17
 C  0.0428343052 -0.7662387273 -0.9431621693
 C -0.0426214309  0.8402765466 -0.8960443516
 C  0.0383246808 -0.0044196314  0.3116582209
 H -0.8310055763 -1.3742180047 -1.1587519731
 H -0.9685168545  1.2903740211 -1.2024703039
 H  0.8221167045  1.3783720789 -1.2598805477
 H  0.9566143235 -1.2370239152 -1.2764275648
 O  0.0216052737 -0.0304919742  1.5123871071
8
step 18
 C  0.0449215932 -0.7644046937 -0.9426985133
 C -0.0445883519  0.8412113799 -0.8947507160
 C  0.0408071591 -0.0043527693  0.3122443118
 H -0.8273121966 -1.3655807957 -1.1541062805
 H -0.9848953718  1.2934183654 -1.1940427666
 H  0.8185889669  1.3800334544 -1.2519958128
 H  0.9683410732 -1.2277824033 -1.2775680258
 O  0.0230391820 -0.0324417531  1.5129724112
8
step 19
 C  0.0470815597 -0.7622711425 -0.9422536738
 C -0.0466342207  0.8416972120 -0.8936510092
 C  0.0433051317 -0.0042082499  0.3128862671
 H -0.8241766302 -1.3562220465 -1.1502300008
 H -1.0012975997  1.2962778384 -1.1849482096
 H  0.8156212500  1.3817812657 -1.2438043412
 H  0.9799795938 -1.2177660125 -1.2787683065
 O  0.0244984474 -0.0344126001  1.5136957400
8
step 20
 C  0.0493977941 -0.7598197152 -0.9418350563
 C -0.0488638419  0.8417653342 -0.8927389890
 C  0.0458142727 -0.0039797830  0.3135930833
 H -0.8219844615 -1.3466316399 -1.1473218444
 H -1.0165664754  1.2984848403 -1.1749836131
 H  0.8133512065  1.3838197297 -1.2355148483
 H  0.9909042667 -1.2068822074 -1.2799107220
 O  0.0259844100 -0.0364048685  1.5145567091
8
step 21
 C  0.0519383213 -0.7570364214 -0.9414505444
 C -0.0513594638  0.8414496824 -0.8920037359
 C  0.0483295446 -0.0036618618  0.3143752759
 H -0.8210263292 -1.3372419635 -1.1455487110
 H -1.0297108760  1.2996524436 -1.1640266967
 H  0.8118235804  1.3862985791 -1.2273008965
 H  1.0005768345 -1.1950950294 -1.2809108268
 O  0.0274984863 -0.0384187532  1.5155535670
8
step 22
 C  0.0547459937 -0.7539140580 -0.9411083571
 C -0.0541718857  0.8407856399 -0.8914293647
 C  0.0508452453 -0.0032499815  0.3152443837
 H -0.8214352641 -1.3283821503 -1.1450284320
 H -1.0399877446  1.2995064769 -1.1520506217
 H  0.8109669219  1.3892944892 -1.2192894549
 H  1.0085973125 -1.1824389929 -1.2817329046
 O  0.0290421747 -0.0404542615  1.5166833587
8
step 23
 C  0.0578319825 -0.7504540130 -0.9408169212
 C -0.0573157469  0.8398090850 -0.8909950664
 C  0.0533550875 -0.0027408608  0.3162124009
 H -0.8231447656 -1.3202483961 -1.1458178458
 H -1.0469528497  1.2979035585 -1.1391267499
 H  0.8105879590  1.3928034270 -1.2115579998
 H  1.0147389985 -1.1690244514 -1.2823996683
 O  0.0306170380 -0.0425111705  1.5179421238
8
step 24
 C  0.0611734070 -0.7466668097 -0.9405845662
 C -0.0607684930  0.8385551681 -0.8906751296
 C  0.0558523141 -0.0021326534  0.3172911535
 H -0.8258789690 -1.3128968570 -1.1479084482
 H -1.0504883404  1.2948395566 -1.1254194699
 H  0.8103856125  1.3967454638 -1.2041401208
 H  1.0189667686 -1.1550353922 -1.2829961610
 O  0.0322246663 -0.0445889821  1.5193251105
8
step 25
 C  0.0647162090 -0.7425713984 -0.9404191119
 C -0.0644730509  0.8370568387 -0.8904388216
 C  0.0583296223 -0.0014251211  0.3184918537
 H -0.8291796498 -1.3062600736 -1.1512280604
 H -1.0508128091  1.2904517771 -1.1111789258
 H  0.8099837748  1.4009799053 -1.1970365815
 H  1.0214385322 -1.1407218996 -1.2836695713
 O  0.0338667242 -0.0466867707  1.5208269974
8
step 26
 C  0.0683799968 -0.7381929698 -0.9403270331
 C -0.0683410521  0.8353427473 -0.8902505128
 C  0.0607797836 -0.0006198767  0.3198240731
 H -0.8324602252 -1.3001808005 -1.1556559660
 H -1.0484736195  1.2850129076 -1.0967197508
 H  0.8089722323  1.4053316675 -1.1902333087
 H  1.0224869485 -1.1263820911 -1.2846174831
 O  0.0355447353 -0.0488033669  1.5224421095
8
step 27
 C  0.0720683153 -0.7335608979 -0.9403131817
 C -0.0722605677  0.8334360416 -0.8900701687
 C  0.0631956922  0.0002796201  0.3212955073
 H -0.8350810227 -1.2944559457 -1.1610367099
 H -1.0443158847  1.2789166819 -1.0824037214
 H  0.8069561294  1.4096186156 -1.1837162082
 H  1.0225829330 -1.1123418611 -1.2860749848
 O  0.0372601195 -0.0509373254  1.5241646588
8
step 28
 C  0.0756801993 -0.7287069871 -0.9403808772
 C -0.0761058500  0.8313543049 -0.8898544471
 C  0.0655705567  0.0012679677  0.3229115669
 H -0.8364269467 -1.2888805776 -1.1671976040
 H -1.0394177866  1.2726485533 -1.0686143124
 H  0.8036025252  1.4136795591 -1.1774854068
 H  1.0222787026 -1.0989279742 -1.2882924647
 O  0.0390141971 -0.0530869445  1.5259889827
8
step 29
 C  0.0791225107 -0.7236646129 -0.9405326717
 C -0.0797501772  0.8291113936 -0.8895586203
 C  0.0678981025  0.0023378494  0.3246751894
 H -0.8359771384 -1.2832858293 -1.1739658283
 H -1.0349826511  1.2667372586 -1.0557259087
 H  0.7986799959  1.4173990861 -1.1715658858
 H  1.0221343267 -1.0864373235 -1.2915073278
 O  0.0408081943 -0.0552503434  1.5279097914
8
step 30
 C  0.0823216995 -0.7184687650 -0.9407716820
 C -0.0830815229  0.8267214377 -0.8891390967
 C  0.0701727221  0.0034801384  0.3265867982
 H -0.8333594994 -1.2775674952 -1.1811834936
 H -1.0321865267  1.2616864338 -1.0440704302
 H  0.7920877508  1.4207269669 -1.1660140536
 H  1.0226361559 -1.0751059168 -1.2959120631
 O  0.0426432531 -0.0574255524  1.5299223998
8
step 31
 C  0.0852328502 -0.7131564038 -0.9411030206
 C -0.0860187324  0.8242043706 -0.8885560561
 C  0.0723896539  0.0046839805  0.3286441407
 H -0.8283863380 -1.2717048158 -1.1887216101
 H -1.0319973961  1.2578928856 -1.0339040052
 H  0.7838704354  1.4236910848 -1.1609215453
 H  1.0241207394 -1.0650818376 -1.3016216583
 O  0.0445203918 -0.0596106307  1.5320228981
8
step 32
 C  0.0878480186 -0.7077676798 -0.9415353346
 C -0.0885281037  0.8215920308 -0.8877757866
 C  0.0745446599  0.0059373619  0.3308430556
 H -0.8210753759 -1.2657691923 -1.1964836907
 H -1.0350071086  1.2555727416 -1.0253930692
 H  0.7742241528  1.4264004710 -1.1564092493
 H  1.0267218308 -1.0564107203 -1.3086553934
 O  0.0464406188 -0.0618036682  1.5342083004
8
step 33
 C  0.0901951930 -0.7023451530 -0.9420807920
 C -0.0906287992  0.8189320007 -0.8867717394
 C  0.0766342900  0.0072268317  0.3331765753
 H -0.8116462339 -1.2599249317 -1.2044172676
 H -1.0413192157  1.2547098825 -1.0185980588
 H  0.7634760427  1.4290413011 -1.1526268370
 H  1.0303508950 -1.0490306628 -1.3169188820
 O  0.0484047607 -0.0640028403  1.5364764878
8
step 34
 C  0.0923367729 -0.6969337241 -0.9427547128
 C -0.0923929329  0.8162886764 -0.8855250551
 C  0.0786555700  0.0085382776  0.3356356481
 H -0.8005044574 -1.2544194716 -1.2125104376
 H -1.0505378818  1.2550543768 -1.0134877399
 H  0.7520559000  1.4318595304 -1.1497381415
 H  1.0347194512 -1.0427846577 -1.3262145797
 O  0.0504135315 -0.0662065085  1.5388261547
8
step 35
 C  0.0943611130 -0.6915793847 -0.9435740073
 C -0.0939333925  0.8137409756 -0.8840240493
 C  0.0806059193  0.0098568823  0.3382088812
 H -0.7882031690 -1.2495639360 -1.2207874832
 H -1.0618558763  1.2561654169 -1.0099577869
 H  0.7404468120  1.4351324746 -1.1479071373
 H  1.0393947668 -1.0374435237 -1.3362604213
 O  0.0524675041 -0.0684131138  1.5412566000
8
step 36
 C  0.0963709972 -0.6863280846 -0.9445553070
 C -0.0953851890  0.8113777606 -0.8822636706
 C  0.0824831289  0.0111674097  0.3408825836
 H -0.7753854071 -1.2457020192 -1.2292975055
 H -1.0742120473  1.2574867333 -1.0078548270
 H  0.7291241704  1.4391300586 -1.1472793238
 H  1.0438762211 -1.0327351061 -1.3467209778
 O  0.0545671136 -0.0706212283  1.5437674917
8
step 37
 C  0.0984703797 -0.6812251381 -0.9457133420
 C -0.0968848444  0.8092927708 -0.8802451414
 C  0.0842853761  0.0124544305  0.3436408948
 H -0.7627100636 -1.2431681432 -1.2380957034
 H -1.0864690109  1.2584313667 -1.0069996488
 H  0.7184912202  1.4440700581 -1.1479612880
 H  1.0476758894 -1.0283748505 -1.3572433584
 O  0.0567126872 -0.0728295715  1.5463585954
8
step 38
 C  0.1007511730 -0.6763153489 -0.9470599393
 C -0.0985522041  0.8075801060 -0.8779758551
 C  0.0860112797  0.0137025184  0.3464660140
 H -0.7507695326 -1.2422385495 -1.2472189019
 H -1.0975702423  1.2584565328 -1.0072060608
 H  0.7088227591  1.4500753300 -1.1500015287
 H  1.0503899953 -1.0240933706 -1.3674920987
 O  0.0589044803 -0.0750370098  1.5490294779
8
step 39
 C  0.1032818812 -0.6716435572 -0.9486036456
 C -0.1004773686  0.8063303524 -0.8754692995
 C  0.0876599682  0.0148964203  0.3493385054
 H -0.7400125843 -1.2430828051 -1.2566592553
 H -1.1066563055  1.2571189376 -1.0082947988
 H  0.7002289077  1.4571427099 -1.1533761386
 H  1.0517533890 -1.0196585737 -1.3771789899
 O  0.0611427008 -0.0772425316  1.5517791787
8
step 40
 C  0.1060996541 -0.6672549074 -0.9503496166
 C -0.1027135273  0.8056267970 -0.8727446654
 C  0.0892311288  0.0160212002  0.3522376400
 H -0.7306884196 -1.2457259197 -1.2663421698
 H -1.1131387513  1.2541097174 -1.0101034568
 H  0.6926469974  1.4651318099 -1.1579825030
 H  1.0516743353 -1.0148915359 -1.3860857398
 O  0.0634275119 -0.0794451923  1.5546058466
8
step 41
 C  0.1092068198 -0.6631940667 -0.9522992813
 C -0.1052750565  0.8055411621 -0.8698258716
 C  0.0907250124  0.0170623621  0.3551417359
 H -0.7228247981 -1.2500308364 -1.2761148618
 H -1.1167401655  1.2492728226 -1.0124938457
 H  0.6858626307  1.4737773075 -1.1636426875
 H  1.0502500083 -1.0096762097 -1.3940787268
 O  0.0657590131 -0.0816440321  1.5575063489
8
step 42
 C  0.1125721769 -0.6595029838 -0.9544494637
 C -0.1081395374  0.8061287768 -0.8667399364
 C  0.0921423880  0.0180059685  0.3580284897
 H -0.7162446382 -1.2557066771 -1.2857497265
 H -1.1175101812  1.2426112303 -1.0153578894
 H  0.6795537251  1.4827222480 -1.1701161271
 H  1.0477639670 -1.0039631770 -1.4011156082
 O  0.0681372087 -0.0838379821  1.5604758812
8
step 43
 C  0.1161373554 -0.6562173705 -0.9567908269
 C -0.1112531461  0.8074236699 -0.8635148006
 C  0.0934844275  0.0188386106  0.3608748613
 H -0.7106151013 -1.2623404288 -1.2949594237
 H -1.1158220981  1.2342843191 -1.0186245907
 H  0.6733476395  1.4915635265 -1.1771163134
 H  1.0446648295 -0.9977678455 -1.4072445986
 O  0.0705619421 -0.0860256407  1.5635075939
8
step 44
 C  0.1198229452 -0.6533629819 -0.9593071194
 C -0.1145345733  0.8094347988 -0.8601771291
 C  0.0947526807  0.0195479635  0.3636587656
 H -0.7055155726 -1.2694487721 -1.3034347791
 H -1.1123546423  1.2245922859 -1.0222570641
 H  0.6668767613  1.4999075999 -1.1843432123
 H  1.0415333782 -0.9911603999 -1.4125892864
 O  0.0730329363 -0.0882055598  1.5665923645
8
step 45
 C  0.1235422709 -0.6509519765 -0.9619738390
 C -0.1178860956  0.8121436893 -0.8567499984
 C  0.0959488288  0.0201225422  0.3663580506
 H -0.7005088191 -1.2765309517 -1.3108667301
 H -1.1080420083  1.2139531094 -1.0262609767
 H  0.6598313171  1.5074134286 -1.1914969067
 H  1.0390223383 -0.9842512539 -1.4173323923
 O  0.0755497605 -0.0903758593  1.5697185851
8
step 46
 C  0.1272102509 -0.6489814047 -0.9647592132
 C -0.1212013193  0.8155056158 -0.8532516545
 C  0.0970746765  0.0205521539  0.3689522526
 H -0.6952048267 -1.2831239882 -1.3169865763
 H -1.1039940055  1.2028593962 -1.0306722987
 H  0.6519966036  1.5138349259 -1.1983082003
 H  1.0377900098 -0.9771683450 -1.4216803353
 O  0.0781118555 -0.0925344778  1.5728721440
8
step 47
 C  0.1307551959 -0.6474329052 -0.9676257914
 C -0.1243786350  0.8194532046 -0.8496950574
 C  0.0981320310  0.0208279998  0.3714228289
 H -0.6893087581 -1.2888458625 -1.3215889634
 H -1.1013712827  1.1918219802 -1.0355446799
 H  0.6432789571  1.5190471692 -1.2045552475
 H  1.0384184680 -0.9700313261 -1.4258260867
 O  0.0807185854 -0.0946791650  1.5760365110
8
step 48
 C  0.1341283220 -0.6462739529 -0.9705330561
 C -0.1273359822  0.8239025950 -0.8460889240
 C  0.0991227136  0.0209427803  0.3737538566
 H -0.6826529515 -1.2934277425 -1.3245501683
 H -1.1012237763  1.1813029843 -1.0409237173
 H  0.6337186384  1.5230615210 -1.2100780494
 H  1.0413341140 -0.9629265834 -1.4299091539
 O  0.0833692295 -0.0968075154  1.5791929082
8
step 49
 C  0.1373106802 -0.6454597903 -0.9734401580
 C -0.1300257609  0.8287606289 -0.8424399108
 C  0.1000486101  0.0208908009  0.3759326018
 H -0.6752133074 -1.2967341017 -1.3258382954
 H -1.1043156669  1.1716514996 -1.0468131194
 H  0.6234900724  1.5260283511 -1.2147874345
 H  1.0467434344 -0.9558885771 -1.4339824527
 O  0.0860629696 -0.0989170225  1.5823205614
8
step 50
 C  0.1403156553 -0.6449357117 -0.9763081404
 C -0.1324454727  0.8339317328 -0.8387553854
 C  0.1009117332  0.0206681855  0.3779502940
 H -0.6671117732 -1.2987715863 -1.3255181636
 H -1.1109803783  1.1630586120 -1.0531389640
 H  0.6128885558  1.5282276901 -1.2186695678
 H  1.0545998281 -0.9488921140 -1.4379933670
 O  0.0887988727 -0.1010052144  1.5853969787
8
step 51
 C  0.1431898681 -0.6446375625 -0.9791003636
 C -0.1346437335  0.8393213843 -0.8350457058
 C  0.1017143747  0.0202725706  0.3798010441
 H -0.6586051468 -1.2996841276 -1.3237388817
 H -1.1210458436  1.1555512561 -1.0597322692
 H  0.6023054597  1.5300430938 -1.2217733949
 H  1.0646020303 -0.9418602441 -1.4417888477
 O  0.0915758165 -0.1030694504  1.5883983905
8
step 52
 C  0.1460048611 -0.6444945356 -0.9817829308
 C -0.1367115602  0.8448398473 -0.8313257890
 C  0.1024591790  0.0197036908  0.3814835374
 H -0.6500610082 -1.2997386034 -1.3207305443
 H -1.1338684020  1.1490165115 -1.0663210503
 H  0.5921852637  1.5319264912 -1.2242035797
 H  1.0762415897 -0.9346804776 -1.4451343006
 O  0.0943924409 -0.1051072781  1.5912999796
8
step 53
 C  0.1488503285 -0.6444294313 -0.9843232222
 C -0.1387703276  0.8504020257 -0.8276147966
 C  0.1031491158  0.0189629449  0.3829987511
 H -0.6419174627 -1.2992929242 -1.3167749580
 H -1.1484468793  1.1432567936 -1.0725583617
 H  0.5829728507  1.5343437076 -1.2260879421
 H  1.0888655695 -0.9272307124 -1.4477522676
 O  0.0972472424 -0.1071162187  1.5940765779
8
step 54
 C  0.1518202709 -0.6443628402 -0.9866898392
 C -0.1409498232  0.8559299691 -0.8239358113
 C  0.1037875345  0.0180539147  0.3843516079
 H -0.6346298672 -1.2987529485 -1.3121860068
 H -1.1635980691  1.1380464549 -1.0780555580
 H  0.5750510270  1.5377175573 -1.2275513845
 H  1.1017655521 -0.9194023168 -1.4493621526
 O  0.1001385310 -0.1090941136  1.5967029180
8
step 55
 C  0.1550026992 -0.6442155258 -0.9888516833
 C -0.1433708167  0.8613534852 -0.8203144146
 C  0.1043780453  0.0169819667  0.3855482661
 H -0.6286051461 -1.2985149264 -1.3072697650
 H -1.1781240722  1.1331826549 -1.0824309655
 H  0.5686816683  1.5423648800 -1.2286736600
 H  1.1142533830 -0.9111219430 -1.4497209379
 O  0.1030645761 -0.1110389476  1.5991544492
8
step 56
 C  0.1584659077 -0.6439146660 -0.9907791066
 C -0.1461268066  0.8666136829 -0.8167781125
 C  0.1049244240  0.0157546291  0.3865977565
 H -0.6241345995 -1.2989062982 -1.3022993184
 H -1.1909626459  1.1285149494 -1.0853447742
 H  0.5639595866  1.5484522712 -1.2294653676
 H  1.1257381596 -0.9023626215 -1.4486525506
 O  0.1060236366 -0.1129491816  1.6014075630
8
step 57
 C  0.1622511591 -0.6433968439 -0.9924437908
 C -0.1492759284  0.8716629807 -0.8133546790
 C  0.1054305470  0.0143813182  0.3875091707
 H -0.6213353939 -1.3001303449 -1.2974807040
 H -1.2012818138  1.1239626097 -1.0865334771
 H  0.5607922445  1.5559674216 -1.2298433396
 H  1.1357742118 -0.8931519312 -1.4460709749
 O  0.1090139828 -0.1148235517  1.6034403286
8
step 58
 C  0.1663651139 -0.6426126176 -0.9938197903
 C -0.1528346223  0.8764660256 -0.8100706331
 C  0.1059001950  0.0128735552  0.3882927597
 H -0.6201162658 -1.3022321677 -1.2929435039
 H -1.2085471582  1.1195158270 -1.0858257090
 H  0.5589084091  1.5647259792 -1.2296367098
 H  1.1441020082 -0.8835698088 -1.4419894160
 O  0.1120339139 -0.1166612891  1.6052326555
8
step 59
 C  0.1707787026 -0.6415273612 -0.9948832731
 C -0.1567785117  0.8809972686 -0.8069484824
 C  0.1063368705  0.0112448688  0.3889586977
 H -0.6201756179 -1.3050909294 -1.2887382786
 H -1.2125520907  1.1152319880 -1.0831541930
 H  0.5578946885  1.5744015689 -1.2286041674
 H  1.1506650091 -0.8737439902 -1.4365225304
 O  0.1150817770 -0.1184620532  1.6067667207
8
step 60
 C  0.1754298517 -0.6401202452 -0.9956119740
 C -0.1610460656  0.8852374256 -0.8040036578
 C  0.1067436809  0.0095108187  0.3895166060
 H -0.6210345157 -1.3084416364 -1.2848496677
 H -1.2134285996  1.1112281029 -1.0785593906
 H  0.5572507763  1.5845757264 -1.2264662688
 H  1.1556106242 -0.8638412519 -1.4298800721
 O  0.1181559172 -0.1202259343  1.6080272401
8
step 61
 C  0.1802301075 -0.6383814514 -0.9959845625
 C -0.1655444687  0.8891694378 -0.8012415246
 C  0.1071232091  0.0076889401  0.3899751378
 H -0.6220967366 -1.3119199393 -1.2812184330
 H -1.2116403101  1.1076711029 -1.0721870286
 H  0.5564518504  1.5947957175 -1.2229433643
 H  1.1592729222 -0.8540555629 -1.4223525454
 O  0.1212546708 -0.1219534478  1.6090017329
8
step 62
 C  0.1850742254 -0.6363085750 -0.9959804360
 C -0.1701571287  0.8927748405 -0.7986551997
 C  0.1074774089  0.0057986156  0.3903417050
 H -0.6227227373 -1.3151188234 -1.2777665320
 H -1.2079549555  1.1047660002 -1.0642785622
 H  0.5550080170  1.6046302438 -1.2177915889
 H  1.1621354313 -0.8445935181 -1.4142888536
 O  0.1243763913 -0.1236455299  1.6096807539
8
step 63
 C  0.1898515824 -0.6339032127 -0.9955803646
 C -0.1747529000  0.8960312566 -0.7962248139
 C  0.1078075729  0.0038608900  0.3906224346
 H -0.6223038932 -1.3176457781 -1.2744203488
 H -1.2033881408  1.1027407145 -1.0551523521
 H  0.5525143228  1.6137165936 -1.2108320589
 H  1.1647732006 -0.8356574741 -1.4060661279
 O  0.1275194772 -0.1253035462  1.6100580884
8
step 64
 C  0.1944583569 -0.6311683979 -0.9947681290
 C -0.1791976193  0.8989114272 -0.7939185807
 C  0.1081143571  0.0018982091  0.3908223634
 H -0.6203267785 -1.3191722159 -1.2711290334
 H -1.1991085511  1.1018258989 -1.0451737369
 H  0.5486885726  1.6217965304 -1.2019710456
 H  1.1677763848 -0.8274273033 -1.3980533538
 O  0.1306824083 -0.1269293054  1.6101309207
8
step 65
 C  0.1988093596 -0.6281070903 -0.9935328871
 C -0.1833683027  0.9013838424 -0.7916956520
 C  0.1083978411 -0.0000658967  0.3909458007
 H -0.6164219640 -1.3194709608 -1.2678769740
 H -1.1962996648  1.1022288651 -1.0347143428
 H  0.5433964598  1.6287405175 -1.1912107748
 H  1.1716628954 -0.8200425059 -1.3905725843
 O  0.1338637798 -0.1285250658  1.6098999663
8
step 66
 C  0.2028481792 -0.6247215924 -0.9918717254
 C -0.1871691825  0.9034147831 -0.7895102962
 C  0.1086576052 -0.0020071511  0.3909968125
 H -0.6103958194 -1.3184409178 -1.2646908673
 H -1.1959872924  1.1041027960 -1.0241053642
 H  0.5366642745  1.6345607278 -1.1786515159
 H  1.1767940085 -0.8135871355 -1.3838637381
 O  0.1370623184 -0.1300935299  1.6093695713
8
step 67
 C  0.2065541532 -0.6210136000 -0.9897917151
 C -0.1905469764  0.9049713580 -0.7873164871
 C  0.1088927948 -0.0039008622  0.3909797387
 H -0.6022457222 -1.3161194926 -1.2616422445
 H -1.1988627657  1.1075155873 -1.0135946363
 H  0.5286787302  1.6394126398 -1.1644855450
 H  1.1833105581 -0.8080801406 -1.3780598683
 O  0.1402768698 -0.1316378237  1.6085477800
8
step 68
 C  0.2099448627 -0.6169846368 -0.9873109255
 C -0.1935013140  0.9060250093 -0.7850718175
 C  0.1091021459 -0.0057222448  0.3908996690
 H -0.5921592062 -1.3126832189 -1.2588460078
 H -1.2051480805  1.1124255060 -1.0033197674
 H  0.5197722596  1.6435836928 -1.1489830846
 H  1.1911054959 -0.8034729929 -1.3731783819
 O  0.1435063684 -0.1331614587  1.6074463695
8
step 69
 C  0.2130734904 -0.6126368153 -0.9844581936
 C -0.1960863946  0.9065550475 -0.7827399608
 C  0.1092839610 -0.0074467518  0.3907628255
 H -0.5804966499 -1.3084359959 -1.2564548882
 H -1.2145471952  1.1186711913 -0.9933061347
 H  0.5103914599  1.6474663217 -1.1324700537
 H  1.1998402686 -0.7996549894 -1.3691300075
 O  0.1467498065 -0.1346682819  1.6060808397
8
step 70
 C  0.2160213099 -0.6079740903 -0.9812718744
 C -0.1984022654  0.9065520568 -0.7802916049
 C  0.1094360432 -0.0090504422  0.3905768233
 H -0.5677563157 -1.3037833368 -1.2546491409
 H -1.2263015683  1.1259800910 -0.9834896945
 H  0.5010474196  1.6515129435 -1.1152980939
 H  1.2090007945 -0.7964649499 -1.3657428368
 O  0.1500062268 -0.1361624202  1.6044703405
8
step 71
 C  0.2188864473 -0.6030042799 -0.9777981073
 C -0.2005775536  0.9060212688 -0.7777044139
 C  0.1095556171 -0.0105103954  0.3903508128
 H -0.5545211646 -1.2991911404 -1.2536206555
 H -1.2393307371  1.1339935855 -0.9737554036
 H  0.4922502048  1.6561732585 -1.0978092169
 H  1.2179790776 -0.7937068856 -1.3627954758
 O  0.1532747520 -0.1376482254  1.6026375215
8
step 72
 C  0.2217706054 -0.5977420127 -0.9740891897
 C -0.2027481222  0.9049859253 -0.7749626929
 C  0.1096392674 -0.0118051572  0.3900955108
 H -0.5413897999 -1.2951296150 -1.2535512944
 H -1.2524130006  1.1423021989 -0.9639782644
 H  0.4844354401  1.6618198445 -1.0803001319
 H  1.2261626660 -0.7911669501 -1.3600524663
 O  0.1565546447 -0.1391302215  1.6006082979
8
step 73
 C  0.2247656584 -0.5922123822 -0.9702024377
 C -0.2050367079  0.9034901791 -0.7720570431
 C  0.1096829287 -0.0129151835  0.3898231332
 H -0.5288989753 -1.2920073134 -1.2545868385
 H -1.2643597014  1.1504829479 -0.9540567445
 H  0.4778965748  1.6686748659 -1.0629934505
 H  1.2330164998 -0.7886295007 -1.3572964422
 O  0.1598453742 -0.1406130484  1.5984115459
8
step 74
 C  0.2279419904 -0.5864545641 -0.9661995391
 C -0.2075373648  0.9016005301 -0.7689838198
 C  0.1096819414 -0.0138232483  0.3895472283
 H -0.5174505813 -1.2901056136 -1.2568101054
 H -1.2741534767  1.1581328838 -0.9439342254
 H  0.4727387006  1.6767552070 -1.0460227707
 H  1.2381475010 -0.7858909679 -1.3543538191
 O  0.1631466615 -0.1421013973  1.5960787431
8
step 75
 C  0.2313402035 -0.5805242439 -0.9621460474
 C -0.2103064688  0.8994046585 -0.7657440546
 C  0.1096311781 -0.0145147970  0.3892823993
 H -0.5072587747 -1.2895277936 -1.2602187259
 H -1.2810416419  1.1648961763 -0.9336091511
 H  0.4688660160  1.6858516878 -1.0294352765
 H  1.2413481504 -0.7827710260 -1.3511129323
 O  0.1664584850 -0.1435999319  1.5936435700
8
step 76
 C  0.2349672801 -0.5744937077 -0.9581104989
 C -0.2133600837  0.8970070389 -0.7623417325
 C  0.1095252291 -0.0149782443  0.3890439074
 H -0.4983301431 -1.2901760872 -1.2647134665
 H -1.2845900264  1.1704847401 -0.9231369065
 H  0.4660058109  1.6955493961 -1.0132101652
 H  1.2426191493 -0.7791209970 -1.3475347813
 O  0.1697810499 -0.1451132001  1.5911414742
8
step 77
 C  0.2387974812 -0.5684489953 -0.9541627671
 C -0.2166761969  0.8945216633 -0.7587816769
 C  0.1093586291 -0.0152052253  0.3888471589
 H -0.4904813828 -1.2917636935 -1.2701010824
 H -1.2847075265  1.1746935535 -0.9126265602
 H  0.4637613701  1.7052842325 -0.9972866306
 H  1.2421725982 -0.7748294404 -1.3436568171
 O  0.1731147356 -0.1466455448  1.5886091928
8
step 78
 C  0.2427774215 -0.5624844005 -0.9503716316
 C -0.2201999444  0.8920630556 -0.7550675149
 C  0.1091261071 -0.0151908116  0.3887071164
 H -0.4833884170 -1.2938589803 -1.2761119700
 H -1.2816497297  1.1774115504 -0.9022346071
 H  0.4616795736  1.7144214855 -0.9815935191
 H  1.2404166626 -0.7698246036 -1.3395898534
 O  0.1764600446 -0.1482010264  1.5860842266
8
step 79
 C  0.2468342061 -0.5566954066 -0.9468019461
 C -0.2238503586  0.8897371495 -0.7512001765
 C  0.1088228421 -0.0149336963  0.3886377006
 H -0.4766532529 -1.2959507389 -1.2824290578
 H -1.2760045977  1.1786277696 -0.8921566485
 H  0.4593185519  1.7223395143 -0.9660743446
 H  1.2379216548 -0.7640730797 -1.3355076620
 O  0.1798175668 -0.1497833643  1.5836042688
8
step 80
 C  0.2508854016 -0.5511714903 -0.9435120309
 C -0.2275280521  0.8876334884 -0.7471772069
 C  0.1084447110 -0.0144363452  0.3886512767
 H -0.4698732236 -1.2975199881 -1.2887221586
 H -1.2686570723  1.1784308558 -0.8826170097
 H  0.4563050655  1.7285049859 -0.9507045163
 H  1.2353671244 -0.7575739708 -1.3316286484
 O  0.1831879654 -0.1513959022  1.5812066033
8
step 81