14
step 0
 S -2.2674838317 -0.2566917273 -0.5856028884
 O  2.7770367999  0.1282056010  0.6666845591
 O  2.2949883497 -0.5857738341 -1.4376362735
 N  0.2680770579  0.5543432009  1.3113058909
 C  0.4046369188 -0.3367258384  0.1259267217
 C  1.9074747287 -0.2796362976 -0.3267663881
 C -0.5407251337 -0.0190087435 -1.0590168900
 H -0.5602536776  0.2657229201  1.8520693650
 H  0.0581868594  1.5091940310  0.9816410248
 H  0.2165928594 -1.3578816902  0.4690122181
 H  2.1705826071  0.3826977694  1.4077270966
 H -0.2644991181 -0.6696564423 -1.8869883647
 H -0.3645325025  1.0061663630 -1.3834024213
 H -2.7680819023  0.1190446901 -1.7589536576
14
step 1
 S -2.2668496386 -0.2549153549 -0.5844606603
 O  2.7758777895  0.1341839361  0.6714346438
 O  2.2964893709 -0.5839872722 -1.4369901383
 N  0.2703408404  0.5535145803  1.3137073120
 C  0.4016673858 -0.3329873778  0.1251805486
 C  1.9047025053 -0.2757955524 -0.3272372709
 C -0.5403796131 -0.0187027159 -1.0594465594
 H -0.5540871566  0.2626789797  1.8517204245
 H  0.0480814303  1.5144881575  0.9824129852
 H  0.2187558638 -1.3708521211  0.4661718886
 H  2.1742170987  0.3819031914  1.4009457522
 H -0.2632067657 -0.6733722177 -1.8840183250
 H -0.3548559937  1.0037967924 -1.3811983505
 H -2.7787531021  0.1200469766 -1.7622222579
14
step 2
 S -2.2662252952 -0.2531324526 -0.5833375616
 O  2.7747711272  0.1401141020  0.6760518929
 O  2.2979818930 -0.5821948792 -1.4363268726
 N  0.2725999865  0.5527759516  1.3160602365
 C  0.3987165603 -0.3293909881  0.1244743116
 C  1.9019791984 -0.2719500109 -0.3276950505
 C -0.5400431306 -0.0184021523 -1.0598754408
 H -0.5483851018  0.2594415133  1.8517364263
 H  0.0382850068  1.5187792965  0.9835377196
 H  0.2210811568 -1.3824028959  0.4629913950
 H  2.1766178407  0.3816626605  1.3957953961
 H -0.2619192769 -0.6770356795 -1.8810707464
 H -0.3453153446  1.0016064767 -1.3791645833
 H -2.7890709998  0.1208578181 -1.7648801126
14
step 3
 S -2.2656195808 -0.2513365797 -0.5822498397
 O  2.7737603475  0.1459552562  0.6804209841
 O  2.2994581708 -0.5803909517 -1.4356300072
 N  0.2748471780  0.5522012232  1.3183248000
 C  0.3958070025 -0.3260575704  0.1238400512
 C  1.8993494664 -0.2680906514 -0.3281258708
 C -0.5397242763 -0.0181109095 -1.0603043020
 H -0.5435362872  0.2558422353  1.8524409536
 H  0.0290830895  1.5212434565  0.9853060744
 H  0.2236794759 -1.3913428072  0.4592140859
 H  2.1767076746  0.3824505367  1.3936660976
 H -0.2606432497 -0.6805989313 -1.8781607995
 H -0.3360404633  0.9997510221 -1.3774573614
 H -2.7987152981  0.1213138210 -1.7663972659
14
step 4
 S -2.2650398056 -0.2495224959 -0.5812100068
 O  2.7728682230  0.1516784995  0.6844592130
 O  2.3009106141 -0.5785699339 -1.4348842796
 N  0.2770688380  0.5518408274  1.3204736451
 C  0.3929653446 -0.3230805732  0.1233011254
 C  1.8968546258 -0.2642092512 -0.3285160276
 C -0.5394307889 -0.0178292674 -1.0607347539
 H -0.5397857336  0.2517629454  1.8540679736
 H  0.0207079121  1.5213247555  0.9879169647
 H  0.2266018707 -1.3967880206  0.4546868551
 H  2.1737766019  0.3845674233  1.3954560304
 H -0.2593856993 -0.6840179087 -1.8753044017
 H -0.3271610937  0.9983417624 -1.3762135298
 H -2.8074151528  0.1212906382 -1.7663625791
14
step 5
 S -2.2644913272 -0.2476864472 -0.5802259504
 O  2.7720853471  0.1572714195  0.6881312025
 O  2.3023319523 -0.5767265371 -1.4340760580
 N  0.2792431635  0.5517164852  1.3224952852
 C  0.3902218019 -0.3205216781  0.1228714196
 C  1.8945316789 -0.2602984697 -0.3288516542
 C -0.5391691583 -0.0175529113 -1.0611693000
 H -0.5371862296  0.2471548837  1.8567303276
 H  0.0133163916  1.5187860031  0.9914593253
 H  0.2298396309 -1.3982069276  0.4493672684
 H  2.1676752219  0.3880700309  1.4013409880
 H -0.2581540125 -0.6872544622 -1.8725195270
 H -0.3188076124  0.9974330377 -1.3755440470
 H -2.8149649790  0.1207110554 -1.7645119416
14
step 6
 S -2.2639772268 -0.2458263526 -0.5793004301
 O  2.7713674087  0.1627385124  0.6914519124
 O  2.3037153627 -0.5748558310 -1.4331935768
 N  0.2813401598  0.5518192186  1.3243951039
 C  0.3876094534 -0.3184086585  0.1225552952
 C  1.8924128656 -0.2563519868 -0.3291186323
 C -0.5389443475 -0.0172725966 -1.0616112936
 H -0.5355843558  0.2420466960  1.8604092911
 H  0.0069753882  1.5137265896  0.9959058601
 H  0.2333281342 -1.3954406774  0.4433231592
 H  2.1588634489  0.3927642831  1.4107273152
 H -0.2569560499 -0.6902777960 -1.8698269365
 H -0.3111109472  0.9970170897 -1.3755300508
 H -2.8212350717  0.1195491925 -1.7607445039
14
step 7
 S -2.2634981236 -0.2439418937 -0.5784308904
 O  2.7706426140  0.1680973033  0.6944764961
 O  2.3050545716 -0.5729532885 -1.4322269873
 N  0.2833239890  0.5521103612  1.3261939539
 C  0.3851635001 -0.3167344493  0.1223479526
 C  1.8905257639 -0.2523646295 -0.3293025933
 C -0.5387596816 -0.0169745620 -1.0620647885
 H -0.5346445008  0.2365390930  1.8649673582
 H  0.0016543167  1.5065727962  1.0011170084
 H  0.2369524746 -1.3887100452  0.4367282818
 H  2.1482894266  0.3982651253  1.4224112073
 H -0.2558003609 -0.6930652493 -1.8672502522
 H -0.3042009981  0.9970272273 -1.3762216757
 H -2.8261776548  0.1178315787 -1.7551288749
14
step 8
 S -2.2630521175 -0.2420344960 -0.5776095486
 O  2.7698256738  0.1733721057  0.6972820400
 O  2.3063439397 -0.5710147675 -1.4311682382
 N  0.2851571458  0.5525255051  1.3279247018
 C  0.3829204966 -0.3154571782  0.1222360682
 C  1.8888936731 -0.2483324953 -0.3293891167
 C -0.5386169097 -0.0166416397 -1.0625343148
 H -0.5339045678  0.2307876005  1.8701805076
 H -0.0027740824  1.4980402738  1.0068548517
 H  0.2405541553 -1.3786116039  0.4298550770
 H  2.1371587835  0.4040940323  1.4348670261
 H -0.2546965143 -0.6956023707 -1.8648153412
 H -0.2982033622  0.9973486526 -1.3776394411
 H -2.8298286448  0.1156353652 -1.7479002913
14
step 9
 S -2.2626348724 -0.2401071905 -0.5768237654
 O  2.7688325400  0.1785879065  0.6999486111
 O  2.3075785688 -0.5690364382 -1.4300108370
 N  0.2868052553  0.5529814663  1.3296272376
 C  0.3809174775 -0.3145016668  0.1221987629
 C  1.8875359831 -0.2442530757 -0.3293641273
 C -0.5385164343 -0.0162549088 -1.0630246132
 H -0.5328500590  0.2249773668  1.8757817219
 H -0.0065219131  1.4890637600  1.0128085859
 H  0.2439394147 -1.3660974706  0.4230630276
 H  2.1266904364  0.4097758495  1.4465484509
 H -0.2536555150 -0.6978823138 -1.8625490017
 H -0.2932345501  0.9978351631 -1.3797778108
 H -2.8323047734  0.1130837156 -1.7394483893
14
step 10
 S -2.2622398730 -0.2381643497 -0.5760567464
 O  2.7675917752  0.1837659305  0.7025447231
 O  2.3087544338 -0.5670146772 -1.4287495559
 N  0.2882411134  0.5533863010  1.3313425378
 C  0.3791908565 -0.3137635983  0.1222091282
 C  1.8864683464 -0.2401253791 -0.3292144113
 C -0.5384576759 -0.0157956498 -1.0635403670
 H -0.5309914012  0.2192950956  1.8815065978
 H -0.0098601479  1.4806889986  1.0186328998
 H  0.2468905267 -1.3524253364  0.4167791815
 H  2.1179277772  0.4149102513  1.4561216114
 H -0.2526902510 -0.6999046516 -1.8604771673
 H -0.2893963345  0.9983292146 -1.3826103260
 H -2.8337951210  0.1103380297 -1.7302942251
14
step 11
 S -2.2618588968 -0.2362112988 -0.5752886363
 O  2.7660514596  0.1889211592  0.7051185479
 O  2.3098685254 -0.5649459579 -1.4273801414
 N  0.2894469399  0.5536518998  1.3331063899
 C  0.3777749781 -0.3131178649  0.1222366568
 C  1.8857026246 -0.2359500477 -0.3289281662
 C -0.5384395186 -0.0152473212 -1.0640859598
 H -0.5279320842  0.2139026853  1.8871337326
 H -0.0130775281  1.4739291019  1.0239980900
 H  0.2491816428 -1.3390616233  0.4114666095
 H  2.1116243353  0.4192128299  1.4626085262
 H -0.2518158895 -0.7016737742 -1.8586229070
 H -0.2867700725  0.9986825733 -1.3860956273
 H -2.8345459411  0.1075865741 -1.7210549160
14
step 12
 S -2.2614827254 -0.2342538213 -0.5744980428
 O  2.7641824757  0.1940611643  0.7076936578
 O  2.3109190041 -0.5628267924 -1.4258990435
 N  0.2904145535  0.5537077053  1.3349434512
 C  0.3767003083 -0.3124321848  0.1222508498
 C  1.8852467224 -0.2317293951 -0.3284954502
 C -0.5384607570 -0.0145972750 -1.0646652592
 H -0.5234203981  0.2089155324  1.8925151740
 H -0.0164282652  1.4696020983  1.0286464748
 H  0.2506006334 -1.3275242156  0.4075775102
 H  2.1081887418  0.4225339286  1.4654584141
 H -0.2510502161 -0.7031972445 -1.8570044585
 H -0.2854117528  0.9987748571 -1.3901838183
 H -2.8348381964  0.1050296453 -1.7123948882
14
step 13
 S -2.2611020936 -0.2322975583 -0.5736639393
 O  2.7619799533  0.1991860517  0.7102674501
 O  2.3119052682 -0.5606536949 -1.4243034167
 N  0.2911439857  0.5535128892  1.3368626743
 C  0.3759911269 -0.3115856664  0.1222259794
 C  1.8851044510 -0.2274674680 -0.3279083796
 C -0.5385205713 -0.0138380929 -1.0652814843
 H -0.5173795128  0.2043884359  1.8975966890
 H -0.0200804226  1.4681836582  1.0324412506
 H  0.2509744656 -1.3191714340  0.4054936553
 H  2.1076645518  0.4248612666  1.4645755415
 H -0.2504133805 -0.7044839820 -1.8556338318
 H -0.2853485494  0.9985285406 -1.3948219603
 H -2.8349578142  0.1028607424 -1.7049658661
14
step 14
 S -2.2607087909 -0.2303474019 -0.5727678139
 O  2.7594634591  0.2042884637  0.7128110505
 O  2.3128280155 -0.5584232242 -1.4225910844
 N  0.2916415733  0.5530639233  1.3388548578
 C  0.3756632765 -0.3104891950  0.1221463145
 C  1.8852755179 -0.2231700224 -0.3271613749
 C -0.5386188153 -0.0129683075 -1.0659370570
 H -0.5099174721  0.2003086213  1.9024251105
 H -0.0240786188  1.4697154803  1.0353972497
 H  0.2501969309 -1.3149683694  0.4054617371
 H  2.1097269693  0.4263187010  1.4603226631
 H -0.2499276527 -0.7055429872 -1.8545156717
 H -0.2865769045  0.9979182115 -1.3999588160
 H -2.8351616165  0.1012469574 -1.6993392479
14
step 15
 S -2.2602967742 -0.2284069249 -0.5717957804
 O  2.7566763517  0.2093539625  0.7152704132
 O  2.3136892348 -0.5561320888 -1.4207606928
 N  0.2919184293  0.5523951747  1.3408931317
 C  0.3757223216 -0.3091020985  0.1220103635
 C  1.8857556508 -0.2188444207 -0.3262510767
 C -0.5387561734 -0.0119925310 -1.0666334453
 H -0.5013151774  0.1965974716  1.9071439215
 H -0.0283349617  1.4737995858  1.0376813678
 H  0.2482509451 -1.3152964342  0.4075413238
 H  2.1136938894  0.4271583075  1.4535033253
 H -0.2496166882 -0.7063826493 -1.8536469435
 H -0.2890624176  0.9969738232 -1.4055479036
 H -2.8356431454  0.1003100144 -1.6959400871
14
step 16
 S -2.2598630921 -0.2264779448 -0.5707402901
 O  2.7536834589  0.2143620438  0.7175696070
 O  2.3144921474 -0.5537772942 -1.4188119654
 N  0.2919895113  0.5515722839  1.3429364157
 C  0.3761626989 -0.3074392540  0.1218326204
 C  1.8865367925 -0.2144994543 -0.3251760844
 C -0.5389341251 -0.0109210004 -1.0673709794
 H -0.4919927394  0.1931211740  1.9119760511
 H -0.0326509632  1.4796803830  1.0395827473
 H  0.2452186289 -1.3198733712  0.4115832005
 H  2.1185640581  0.4277425457  1.4453085247
 H -0.2495044526 -0.7070107914 -1.8530173844
 H -0.2927414199  0.9957775928 -1.4115486271
 H -2.8365045438  0.1001114913 -1.6949936887
14
step 17
 S -2.2594084242 -0.2245602924 -0.5696010906
 O  2.7505656453  0.2192883967  0.7196180604
 O  2.3152410867 -0.5513562131 -1.4167459837
 N  0.2918727930  0.5506803122  1.3449352169
 C  0.3769681305 -0.3055660159  0.1216421179
 C  1.8876072349 -0.2101452578 -0.3239368011
 C -0.5391546749 -0.0097686196 -1.0681486753
 H -0.4824551526  0.1897104933  1.9171938291
 H -0.0367621330  1.4863870411  1.0414618136
 H  0.2412750431 -1.3278155019  0.4172471763
 H  2.1231063557  0.4285088247  1.4372014755
 H -0.2496139359 -0.7074350174 -1.8526106889
 H -0.2975240396  0.9944548855 -1.4179250476
 H -2.8377403969  0.1006452151 -1.6964958006
14
step 18
 S -2.2589370946 -0.2226518561 -0.5683852105
 O  2.7474096563  0.2241085979  0.7213233459
 O  2.3159414304 -0.5488668980 -1.4145655436
 N  0.2915876943  0.5498095901  1.3468388052
 C  0.3781133915 -0.3035826206  0.1214777106
 C  1.8889516676 -0.2057927262 -0.3225345382
 C -0.5394200174 -0.0085534693 -1.0689640390
 H -0.4732223192  0.1861879543  1.9230753138
 H -0.0403912776  1.4928962290  1.0436938013
 H  0.2366676688 -1.3378176710  0.4240536483
 H  2.1260260365  0.4299093002  1.4307122140
 H -0.2499657652 -0.7076647395 -1.8524063224
 H -0.3032988876  0.9931594477 -1.4246436495
 H -2.8392379644  0.1018387994 -1.7002129230
14
step 19
 S -2.2584565789 -0.2207488667 -0.5671059761
 O  2.7442938156  0.2288035040  0.7226091804
 O  2.3165994372 -0.5463080916 -1.4122754024
 N  0.2911526516  0.5490423761  1.3486025487
 C  0.3795665467 -0.3016045382  0.1213823224
 C  1.8905510573 -0.2014534388 -0.3209713945
 C -0.5397320155 -0.0072950823 -1.0698130410
 H -0.4647508447  0.1824004566  1.9298539320
 H -0.0432969535  1.4982786069  1.0466166999
 H  0.2316870484 -1.3483844268  0.4314516795
 H  2.1262004280  0.4323284661  1.4271535776
 H -0.2505769232 -0.7077121611 -1.8523816715
 H -0.3099385043  0.9920550989 -1.4316685776
 H -2.8407929341  0.1035636850 -1.7057132791
14
step 20
 S -2.2579766078 -0.2188463886 -0.5657812922
 O  2.7412724241  0.2333648390  0.7234346494
 O  2.3172221112 -0.5436792884 -1.4098824384
 N  0.2905822547  0.5484420231  1.3501943670
 C  0.3812913940 -0.2997440170  0.1213972222
 C  1.8923824578 -0.1971394728 -0.3192500433
 C -0.5400916726 -0.0060125287 -1.0706901961
 H -0.4573622804  0.1782511615  1.9376679114
 H -0.0453101945  1.5018110147  1.0504920718
 H  0.2266366188 -1.3580462942  0.4388851303
 H  2.1229351591  0.4359966398  1.4273168838
 H -0.2514597439 -0.7075935065 -1.8525142306
 H -0.3173053293  0.9912953823 -1.4389562326
 H -2.8421376608  0.1056516553 -1.7124210151
14
step 21
 S -2.2575080676 -0.2169389200 -0.5644315444
 O  2.7383647537  0.2377989684  0.7238075626
 O  2.3178170494 -0.5409807615 -1.4073956645
 N  0.2898850628  0.5480455371  1.3515993621
 C  0.3832496173 -0.2980962093  0.1215575087
 C  1.8944189880 -0.1928633038 -0.3173737487
 C -0.5404986592 -0.0047225751 -1.0715887806
 H -0.4511929662  0.1737237302  1.9465212370
 H -0.0463578467  1.5030503335  1.0554798908
 H  0.2218068641 -1.3655228860  0.4458452634
 H  2.1161440705  0.4409312395  1.4312604139
 H -0.2526212468 -0.7073298039 -1.8527834817
 H -0.3252573813  0.9910038430 -1.4464497076
 H -2.8429756298  0.1079143818 -1.7196826215
14
step 22
 S -2.2570618900 -0.2150210020 -0.5630774811
 O  2.7355537910  0.2421270849  0.7237856192
 O  2.3183922657 -0.5382135357 -1.4048260523
 N  0.2890631612  0.5478597096  1.3528219219
 C  0.3854025413 -0.2967304749  0.1218891367
 C  1.8966301716 -0.1886377732 -0.3153465691
 C -0.5409509544 -0.0034381571 -1.0725011410
 H -0.4461776683  0.1688923653  1.9562666643
 H -0.0464740552  1.5018733121  1.0616261119
 H  0.2174557758 -1.3698259415  0.4519066857
 H  2.1063672228  0.4469333521  1.4382897587
 H -0.2540628484 -0.7069470169 -1.8531722381
 H -0.3336529419  0.9912576165 -1.4540740303
 H -2.8430159962  0.1101627535 -1.7268342613
14
step 23
 S -2.2566480778 -0.2130877434 -0.5617383308
 O  2.7327952295  0.2463817206  0.7234647429
 O  2.3189560105 -0.5353792968 -1.4021861885
 N  0.2881138753  0.5478606938  1.3538850079
 C  0.3877125142 -0.2956858096  0.1224073162
 C  1.8989826939 -0.1844760876 -0.3131736977
 C -0.5414446528 -0.0021673892 -1.0734190406
 H -0.4420706059  0.1639142746  1.9666164922
 H -0.0458019018  1.4984874215  1.0688611091
 H  0.2137950244 -1.3703146989  0.4567492544
 H  2.0946181534  0.4536414464  1.4471401836
 H -0.2557803884 -0.7064754026 -1.8536672719
 H -0.3423537033  0.9920768047 -1.4617331879
 H -2.8420036199  0.1122235740 -1.7332616152
14
step 24
 S -2.2562749357 -0.2111352215 -0.5604302876
 O  2.7300321824  0.2506012449  0.7229602020
 O  2.3195166023 -0.5324802373 -1.3994897597
 N  0.2870331672  0.5479968299  1.3548268308
 C  0.3901440620 -0.2949688362  0.1231158389
 C  1.9014413636 -0.1803918558 -0.3108620081
 C -0.5419739569 -0.0009132682 -1.0743339627
 H -0.4384977835  0.1590058265  1.9771790648
 H -0.0445857138  1.4934138094  1.0770082813
 H  0.2109801182 -1.3667212687  0.4601706374
 H  2.0821357219  0.4606168177  1.4562737172
 H -0.2577645136 -0.7059481158 -1.8542591042
 H -0.3512262990  0.9934213149 -1.4693098539
 H -2.8397422938  0.1139525753 -1.7384479016
14
step 25
 S -2.2559485246 -0.2091607466 -0.5591653957
 O  2.7272096202  0.2548244587  0.7223878693
 O  2.3200822901 -0.5295188488 -1.3967509182
 N  0.2858195690  0.5481946433  1.3556954953
 C  0.3926649185 -0.2945531994  0.1240069202
 C  1.9039700186 -0.1763991610 -0.3084207531
 C -0.5425313383  0.0003258824 -1.0752372983
 H -0.4350273917  0.1544077359  1.9875125503
 H -0.0431527781  1.4874380430  1.0858033182
 H  0.2091029716 -1.3591597114  0.4620933816
 H  2.0701402863  0.4674278779  1.4641751921
 H -0.2600013942 -0.7053991549 -1.8549410417
 H -0.3601424147  0.9951956948 -1.4766682405
 H -2.8361107159  0.1152436206 -1.7420090581
14
step 26
 S -2.2556723209 -0.2071630113 -0.5579508082
 O  2.7242848358  0.2590866001  0.7218503257
 O  2.3206611601 -0.5264976966 -1.3939836145
 N  0.2844773303  0.5483680148  1.3565423991
 C  0.3952469344 -0.2943798737  0.1250613228
 C  1.9065321788 -0.1725126656 -0.3058623480
 C -0.5431078282  0.0015552976 -1.0761203834
 H -0.4312433350  0.1503463824  1.9971847371
 H -0.0418822875  1.4815218129  1.0949249034
 H  0.2081861699 -1.3481250651  0.4625682815
 H  2.0596570198  0.4737126469  1.4695732308
 H -0.2624736831 -0.7048608461 -1.8557076264
 H -0.3689778990  0.9972612278 -1.4836599462
 H -2.8310718580  0.1160344701 -1.7437170415
14
step 27
 S -2.2554470566 -0.2051421455 -0.5567883753
 O  2.7212333709  0.2634169988  0.7214287692
 O  2.3212610871 -0.5234192204 -1.3912009840
 N  0.2830178156  0.5484302932  1.3574152022
 C  0.3978667632 -0.2943586036  0.1262487718
 C  1.9090913843 -0.1687477333 -0.3032032060
 C -0.5436933836  0.0027821655 -1.0769743990
 H -0.4268099284  0.1469977107  2.0058288007
 H -0.0411605392  1.4766725749  1.1040361413
 H  0.2081795349 -1.3344801484  0.4617732801
 H  2.0514170516  0.4792156073  1.4715712316
 H -0.2651615975 -0.7043611272 -1.8565526922
 H -0.3776114627  0.9994534387 -1.4901321814
 H -2.8246767094  0.1163096124 -1.7435128012
14
step 28
 S -2.2552707156 -0.2030996860 -0.5556745323
 O  2.7180514398  0.2678379276  0.7211791726
 O  2.3218897260 -0.5202855875 -1.3884149025
 N  0.2814588584  0.5483083036  1.3583511487
 C  0.4005061843 -0.2943714126  0.1275289608
 C  1.9116114635 -0.1651204631 -0.3004642104
 C -0.5442772863  0.0040137891 -1.0777901265
 H -0.4215202186  0.1444585604  2.0131884982
 H -0.0413255639  1.4737806032  1.1128323341
 H  0.2089610333 -1.3194196473  0.4600043749
 H  2.0458163238  0.4838054043  1.4697091747
 H -0.2680437885 -0.7039209690 -1.8574674070
 H -0.3859235143  1.0016024168 -1.4959374046
 H -2.8170631444  0.1161003473 -1.7415100894
14
step 29
 S -2.2551386827 -0.2010384863 -0.5546004904
 O  2.7147566280  0.2723640688  0.7211308752
 O  2.3225545022 -0.5170986377 -1.3856357159
 N  0.2798226444  0.5479561168  1.3593717543
 C  0.4031517170 -0.2942796016  0.1288535490
 C  1.9140567925 -0.1616475116 -0.2976708126
 C -0.5448485418  0.0052558270 -1.0785576387
 H -0.4153261654  0.1427277201  2.0191486386
 H -0.0426107929  1.4734510855  1.1210860470
 H  0.2103460304 -1.3043946676  0.4576529821
 H  2.0429042290  0.4874814021  1.4639850535
 H -0.2710980560 -0.7035523707 -1.8584386416
 H -0.3937956632  1.0035532517 -1.5009432986
 H -2.8084502548  0.1154825918 -1.7379899172
14
step 30
 S -2.2550440597 -0.1989625389 -0.5535527633
 O  2.7113878222  0.2770023279  0.7212865097
 O  2.3232626157 -0.5138599201 -1.3828722135
 N  0.2781331384  0.5473652352  1.3604798198
 C  0.4057931262 -0.2939356625  0.1301697886
 C  1.9163926981 -0.1583457388 -0.2948528640
 C -0.5453962505  0.0065108358 -1.0792660184
 H -0.4083489530  0.1416984675  2.0237494570
 H -0.0451024771  1.4758752598  1.1286776256
 H  0.2121088853 -1.2909807259  0.4551640922
 H  2.0423840708  0.4903744328  1.4548536595
 H -0.2743016939 -0.7032569982 -1.8594476702
 H -0.4011111116  1.0051842244 -1.5050419349
 H -2.7991276645  0.1145718342 -1.7333843934
14
step 31
 S -2.2549781646 -0.1968766855 -0.5525140949
 O  2.7080043074  0.2817518993  0.7216228962
 O  2.3240210619 -0.5105708214 -1.3801318713
 N  0.2764140096  0.5465680429  1.3616594637
 C  0.4084207210 -0.2932005793  0.1314259728
 C  1.9185861415 -0.1552315567 -0.2920437434
 C -0.5459099532  0.0077773105 -1.0799031061
 H -0.4008685227  0.1411638928  2.0271833844
 H -0.0487247700  1.4807822588  1.1356020887
 H  0.2140190403 -1.2806829365  0.4529732021
 H  2.0436232080  0.4927424056  1.4432043712
 H -0.2776312824 -0.7030257378 -1.8604696077
 H -0.4077559549  1.0064207936 -1.5081572340
 H -2.7894391700  0.1135146549 -1.7282478572
14
step 32
 S -2.2549312337 -0.1947862095 -0.5514648444
 O  2.7046833431  0.2866048822  0.7220939218
 O  2.3248366292 -0.5072327710 -1.3774212833
 N  0.2746874382  0.5456331531  1.3628793584
 C  0.4110217089 -0.2919646649  0.1325780672
 C  1.9206065655 -0.1523200121 -0.2892789133
 C -0.5463799220  0.0090493336 -1.0804553245
 H -0.3932921874  0.1408355613  2.0297721709
 H -0.0532581678  1.4874892430  1.1419512245
 H  0.2158883604 -1.2746984916  0.4514291608
 H  2.0456860469  0.4949559046  1.4303032678
 H -0.2810621176 -0.7028393378 -1.8614737779
 H -0.4136213832  1.0072440694 -1.5102500214
 H -2.7797601816  0.1124765690 -1.7232132711
14
step 33
 S -2.2548933134 -0.1926963118 -0.5503848331
 O  2.7015146934  0.2915479983  0.7226371154
 O  2.3257158916 -0.5038474907 -1.3747467419
 N  0.2729734101  0.5446538250  1.3640986980
 C  0.4135765301 -0.2901672099  0.1335959173
 C  1.9224267106 -0.1496237300 -0.2865940268
 C -0.5467973795  0.0103168292 -1.0809076120
 H -0.3861027855  0.1403754688  2.0319231309
 H -0.0583852385  1.4950328301  1.1478780884
 H  0.2176181453 -1.2736910879  0.4507218997
 H  2.0474160684  0.4974656560  1.4176736913
 H -0.2845673632 -0.7026700747 -1.8624250163
 H -0.4186064171  1.0076930822 -1.5113200650
 H -2.7704693507  0.1116262359 -1.7189336341
14
step 34
 S -2.2548552762 -0.1906115071 -0.5492555484
 O  2.6985906120  0.2965658940  0.7231853455
 O  2.3266652031 -0.5004172535 -1.3721149013
 N  0.2712887389  0.5437325706  1.3652748984
 C  0.4160565507 -0.2878086143  0.1344668707
 C  1.9240231972 -0.1471518583 -0.2840227028
 C -0.5471546316  0.0115663573 -1.0812434792
 H -0.3797898354  0.1394392345  2.0340661079
 H -0.0637494335  1.5023401341  1.1535555889
 H  0.2192290814 -1.2776511305  0.4508400892
 H  2.0475925396  0.5007445546  1.4068936426
 H -0.2881170368 -0.7024842897 -1.8632858254
 H -0.4226207682  1.0078606414 -1.5114047525
 H -2.7619163753  0.1111170228 -1.7160117537
14
step 35
 S -2.2548098354 -0.1885350203 -0.5480624582
 O  2.6959912869  0.3016459614  0.7236831977
 O  2.3276906888 -0.4969451220 -1.3695334233
 N  0.2696454018  0.5429654727  1.3663717541
 C  0.4184242007 -0.2849503898  0.1351953268
 C  1.9253767668 -0.1449091562 -0.2815942016
 C -0.5474451130  0.0127823493 -1.0814452072
 H -0.3747722748  0.1377254035  2.0365781796
 H -0.0690123270  1.5083956853  1.1591394342
 H  0.2208612325 -1.2858958570  0.4515761050
 H  2.0451625679  0.5052053662  1.3993184948
 H -0.2916770023 -0.7022455479 -1.8640191575
 H -0.4255875198  1.0078830506 -1.5105743934
 H -2.7543898448  0.1110681126 -1.7149263218
14
step 36
 S -2.2547524006 -0.1864682912 -0.5467970638
 O  2.6937687157  0.3067835685  0.7241041549
 O  2.3287982053 -0.4934351171 -1.3670115298
 N  0.2680485271  0.5424288564  1.3673666493
 C  0.4206357156 -0.2817030410  0.1357983649
 C  1.9264723006 -0.1428952574 -0.2793310604
 C -0.5476633539  0.0139486703 -1.0814942166
 H -0.3713269033  0.1350223568  2.0397093359
 H -0.0738997504  1.5123758208  1.1647413622
 H  0.2227437495 -1.2972087106  0.4525761047
 H  2.0394992180  0.5111104900  1.3957908381
 H -0.2952082789 -0.7019182200 -1.8645915902
 H -0.4274456304  1.0079243793 -1.5089245146
 H -2.7480902049  0.1115485704 -1.7159662561
14
step 37
 S -2.2546815709 -0.1844106805 -0.5454582823
 O  2.6919352623  0.3119857915  0.7244621947
 O  2.3299933023 -0.4898923129 -1.3645601662
 N  0.2664951344  0.5421699717  1.3682555316
 C  0.4226450982 -0.2782068911  0.1362996266
 C  1.9272986834 -0.1411044929 -0.2772481684
 C -0.5478048717  0.0150504298 -1.0813716564
 H -0.3695381171  0.1312431929  2.0435282097
 H -0.0782341536  1.5137406591  1.1704121311
 H  0.2251463425 -1.3100624126  0.4534152165
 H  2.0305856266  0.5185087182  1.3964455952
 H -0.2986663626 -0.7014704017 -1.8649758724
 H -0.4281517096  1.0081568156 -1.5065658989
 H -2.7431135220  0.1125667011 -1.7191863892
14
step 38
 S -2.2545992161 -0.1823594521 -0.5440528340
 O  2.6904616522  0.3172716756  0.7248116938
 O  2.3312811342 -0.4863227998 -1.3621920240
 N  0.2649744180  0.5422019051  1.3690544856
 C  0.4244087155 -0.2746116046  0.1367231527
 C  1.9278490030 -0.1395256718 -0.2753513121
 C -0.5478660178  0.0160758823 -1.0810591132
 H -0.3692827839  0.1264393736  2.0479015364
 H -0.0819536196  1.5122862092  1.1761352917
 H  0.2283297352 -1.3228535043  0.4536721222
 H  2.0190407466  0.5272232219  1.4006962030
 H -0.3020014441 -0.7008770449 -1.8651536407
 H -0.4276820612  1.0087387548 -1.5036136010
 H -2.7394485927  0.1140682958 -1.7243947890
14
step 39
 S -2.2545100879 -0.1803100278 -0.5425945413
 O  2.6892855736  0.3226688060  0.7252356258
 O  2.3326663964 -0.4827335714 -1.3599212107
 N  0.2634701173  0.5425027704  1.3697976941
 C  0.4258891315 -0.2710593049  0.1370889862
 C  1.9281208766 -0.1381419855 -0.2736364107
 C -0.5478437950  0.0170182730 -1.0805393883
 H -0.3702540217  0.1207904180  2.0525149224
 H -0.0851198310  1.5081620780  1.1818278497
 H  0.2325067846 -1.3340947090  0.4529864214
 H  2.0059712156  0.5368986112  1.4074083665
 H -0.3051589594 -0.7001223134 -1.8651174689
 H -0.4260343502  1.0097934358 -1.5001762744
 H -2.7369884279  0.1159433742 -1.7311746475
14
step 40
 S -2.2544210779 -0.1782564478 -0.5411026781
 O  2.6883271247  0.3282082155  0.7258283907
 O  2.3341531545 -0.4791320883 -1.3577623618
 N  0.2619645235  0.5430187234  1.3705325016
 C  0.4270573269 -0.2676724982  0.1374110286
 C  1.9281169179 -0.1369318343 -0.2720914527
 C -0.5477356912  0.0178771718 -1.0797975579
 H -0.3720170880  0.1145709507  2.0569284875
 H -0.0879157473  1.5018589198  1.1873476639
 H  0.2378182412 -1.3425495918  0.4510946541
 H  1.9927183824  0.5470815754  1.4151780836
 H -0.3080812709 -0.6991998902 -1.8648704876
 H -0.4232289047  1.0113907278 -1.4963466399
 H -2.7355522621  0.1180407148 -1.7389355745
14
step 41
 S -2.2543402768 -0.1761919442 -0.5395997434
 O  2.6875038239  0.3339190225  0.7266787399
 O  2.3357447913 -0.4755258845 -1.3557296764
 N  0.2604427713  0.5436704648  1.3713124514
 C  0.4278942133 -0.2645468282  0.1376964674
 C  1.9278448868 -0.1358694546 -0.2706978638
 C -0.5475394904  0.0186593172 -1.0788217268
 H -0.3740825649  0.1081053938  2.0606529649
 H -0.0906319310  1.4941605152  1.1925062840
 H  0.2443215282 -1.3473111657  0.4478472011
 H  1.9806110708  0.5573060590  1.4226034603
 H -0.3107095430 -0.6981127674 -1.8644257939
 H -0.4193094488  1.0135353457 -1.4921951598
 H -2.7349140249  0.1201858729 -1.7469834113
14
step 42
 S -2.2542760094 -0.1741095356 -0.5381090707
 O  2.6867419353  0.3398245299  0.7278577517
 O  2.3374439427 -0.4719220950 -1.3538357916
 N  0.2588961772  0.5443629705  1.3721897779
 C  0.4283911813 -0.2617469547  0.1379461869
 C  1.9273175045 -0.1349258944 -0.2694328864
 C -0.5472531236  0.0193786110 -1.0776036642
 H -0.3759816489  0.1017185431  2.0632283104
 H -0.0936384400  1.4860556550  1.1970881696
 H  0.2519883233 -1.3478443360  0.4432133193
 H  1.9707846952  0.5671592536  1.4284854329
 H -0.3129861725 -0.6968715771 -1.8638042881
 H -0.4143430331  1.0161632569 -1.4877672399
 H -2.7348314923  0.1222001624 -1.7545952116
14
step 43
 S -2.2542359740 -0.1720025699 -0.5366526301
 O  2.6859832510  0.3459399333  0.7294122421
 O  2.3392524342 -0.4683270207 -1.3520906827
 N  0.2573236362  0.5449981695  1.3732083437
 C  0.4285500578 -0.2593043031  0.1381555107
 C  1.9265519389 -0.1340700930 -0.2682722044
 C -0.5468745750  0.0200552442 -1.0761391994
 H -0.3773316437  0.0956901903  2.0642915963
 H -0.0973399296  1.4786060144  1.2008761732
 H  0.2607072478 -1.3440078776  0.4372798861
 H  1.9640788370  0.5763237991  1.4319457083
 H -0.3148574360 -0.6954918640 -1.8630314237
 H -0.4084189898  1.0191471267 -1.4830843302
 H -2.7350722631  0.1239176578 -1.7610885004
14
step 44
 S -2.2542265567 -0.1698651790 -0.5352492287
 O  2.6851885672  0.3522712336  0.7313621041
 O  2.3411712053 -0.4647457221 -1.3505006926
 N  0.2557308269  0.5454896738  1.3743976993
 C  0.4283826426 -0.2572158132  0.1383149480
 C  1.9255691413 -0.1332699923 -0.2671926173
 C -0.5464018688  0.0207139860 -1.0744283892
 H -0.3778853746  0.0902182290  2.0636268127
 H -0.1021151834  1.4727779831  1.2036821897
 H  0.2702897497 -1.3360660739  0.4302470889
 H  1.9609899997  0.5846004857  1.4324842708
 H -0.3162761900 -0.6939905294 -1.8621332210
 H -0.4016467168  1.0223101469 -1.4781484434
 H -2.7354343950  0.1251992697 -1.7658782525
14
step 45
 S -2.2542523195 -0.1676926296 -0.5339131857
 O  2.6843394464  0.3588145751  0.7336994555
 O  2.3432001595 -0.4611820153 -1.3490679414
 N  0.2541276916  0.5457774046  1.3757687870
 C  0.4279099435 -0.2554437860  0.1384106799
 C  1.9243933580 -0.1324931449 -0.2661734498
 C -0.5458331981  0.0213821587 -1.0724754170
 H -0.3775627033  0.0853943252  2.0611954083
 H -0.1082502869  1.4692663080  1.2053769887
 H  0.2804775838 -1.3246914710  0.4224224785
 H  1.9616532436  0.5919235784  1.4299999451
 H -0.3172040097 -0.6923826211 -1.8611319582
 H -0.3941530280  1.0254460406 -1.4729496016
 H -2.7357616381  0.1259409685 -1.7685196308
14
step 46
 S -2.2543156715 -0.1654815762 -0.5326534283
 O  2.6834393352  0.3655559708  0.7363886175
 O  2.3453380312 -0.4576381959 -1.3477898631
 N  0.2525254485  0.5458389192  1.3773116700
 C  0.4271610304 -0.2539170717  0.1384253832
 C  1.9230518393 -0.1317075112 -0.2651982820
 C -0.5451671420  0.0220870369 -1.0702883777
 H -0.3764630679  0.0811901588  2.0571453649
 H -0.1158801706  1.4683523248  1.2059162230
 H  0.2909555386 -1.3109502027  0.4142097051
 H  1.9658264890  0.5983659069  1.4248011499