14
step 0
 S -2.2674838317 -0.2566917273 -0.5856028884
 O  2.7770367999  0.1282056010  0.6666845591
 O  2.2949883497 -0.5857738341 -1.4376362735
 N  0.2680770579  0.5543432009  1.3113058909
 C  0.4046369188 -0.3367258384  0.1259267217
 C  1.9074747287 -0.2796362976 -0.3267663881
 C -0.5407251337 -0.0190087435 -1.0590168900
 H -0.5602536776  0.2657229201  1.8520693650
 H  0.0581868594  1.5091940310  0.9816410248
 H  0.2165928594 -1.3578816902  0.4690122181
 H  2.1705826071  0.3826977694  1.4077270966
 H -0.2644991181 -0.6696564423 -1.8869883647
 H -0.3645325025  1.0061663630 -1.3834024213
 H -2.7680819023  0.1190446901 -1.7589536576
14
step 1
 S -2.2668497981 -0.2549158018 -0.5844609476
 O  2.7758780811  0.1341824321  0.6714334488
 O  2.2964889933 -0.5839877216 -1.4369903009
 N  0.2703402709  0.5535147888  1.3137067079
 C  0.4016681329 -0.3329883183  0.1251807363
 C  1.9047032028 -0.2757965186 -0.3272371524
 C -0.5403797001 -0.0187027929 -1.0594464513
 H -0.5540887080  0.2626797455  1.8517205123
 H  0.0480839726  1.5144868255  0.9824127910
 H  0.2187553196 -1.3708488579  0.4661726031
 H  2.1742161844  0.3819033914  1.4009474583
 H -0.2632070909 -0.6733712829 -1.8840190722
 H -0.3548584281  1.0037973885 -1.3811989051
 H -2.7787504174  0.1200467244 -1.7622214356
14
step 2
 S -2.2662256118 -0.2531333480 -0.5833381316
 O  2.7747716968  0.1401111062  0.6760495363
 O  2.2979811398 -0.5821957794 -1.4363272020
 N  0.2725988487  0.5527763465  1.3160590402
 C  0.3987180492 -0.3293928342  0.1244746776
 C  1.9019805814 -0.2719519454 -0.3276948171
 C -0.5400433022 -0.0184023048 -1.0598752246
 H -0.5483880871  0.2594430935  1.8517365086
 H  0.0382900115  1.5187768799  0.9835372446
 H  0.2210800315 -1.3823967164  0.4629929042
 H  2.1766163269  0.3816629193  1.3957983978
 H -0.2619199254 -0.6770338228 -1.8810722367
 H -0.3453201797  1.0016076236 -1.3791656502
 H -2.7890657189  0.1208573606 -1.7648786184
14
step 3
 S -2.2656200498 -0.2513379268 -0.5822506837
 O  2.7737611684  0.1459507918  0.6804175302
 O  2.2994570463 -0.5803923054 -1.4356305117
 N  0.2748454751  0.5522017645  1.3183230335
 C  0.3958092214 -0.3260602589  0.1238405787
 C  1.8993515118 -0.2680935581 -0.3281255291
 C -0.5397245280 -0.0181111353 -1.0603039772
 H -0.5435404892  0.2558447223  1.8524408543
 H  0.0290904011  1.5212403981  0.9853051620
 H  0.2236777135 -1.3913343339  0.4592165227
 H  2.1767061808  0.3824505869  1.3936696011
 H -0.2606442180 -0.6805961780 -1.8781630256
 H -0.3360476330  0.9997526374 -1.3774588596
 H -2.7987075896  0.1213132433 -1.7663953774
14
step 4
 S -2.2650404204 -0.2495242990 -0.5812111132
 O  2.7728692607  0.1516725966  0.6844547482
 O  2.3009091244 -0.5785717453 -1.4348849717
 N  0.2770665768  0.5518414630  1.3204713372
 C  0.3929682742 -0.3230840191  0.1233017926
 C  1.8968573006 -0.2642131359 -0.3285155869
 C -0.5394311143 -0.0178295643 -1.0607343194
 H -0.5397908729  0.2517664624  1.8540674572
 H  0.0207173115  1.5213216291  0.9879154101
 H  0.2265994120 -1.3967780748  0.4546903786
 H  2.1737759532  0.3845669196  1.3954589922
 H -0.2593869819 -0.6840142957 -1.8753073531
 H -0.3271704998  0.9983437384 -1.3762153444
 H -2.8074052536  0.1212900536 -1.7663606707
14
step 5
 S -2.2644920798 -0.2476887116 -0.5802273057
 O  2.7720865695  0.1572641106  0.6881258201
 O  2.3023301057 -0.5767288117 -1.4340769533
 N  0.2792403570  0.5517171570  1.3224924677
 C  0.3902254146 -0.3205257816  0.1228722014
 C  1.8945349410 -0.2603033394 -0.3288511267
 C -0.5391695492 -0.0175532786 -1.0611687539
 H -0.5371920156  0.2471595665  1.8567291314
 H  0.0133276123  1.5187834440  0.9914568989
 H  0.2298364252 -1.3981964558  0.4493720412
 H  2.1676762727  0.3880686241  1.4013423363
 H -0.2581556014 -0.6872500367 -1.8725231896
 H -0.3188191234  0.9974352571 -1.3755460359
 H -2.8149531788  0.1207105946 -1.7645104506
14
step 6
 S -2.2639781084 -0.2458290840 -0.5793020199
 O  2.7713687969  0.1627298273  0.6914456980
 O  2.3037131691 -0.5748585758 -1.4331946941
 N  0.2813368297  0.5518198699  1.3243918077
 C  0.3876137134 -0.3184133112  0.1225561648
 C  1.8924166655 -0.2563578498 -0.3291180327
 C -0.5389447947 -0.0172730364 -1.0616106323
 H -0.5355905415  0.2420526711  1.8604071605
 H  0.0069881384  1.5137252255  0.9959023312
 H  0.2333241478 -1.3954306819  0.4433293292
 H  2.1588668903  0.3927616918  1.4107261830
 H -0.2569579349 -0.6902726136 -1.8698312917
 H -0.3111243982  0.9970194413 -1.3755320519
 H -2.8212216966  0.1195489924 -1.7607438953
14
step 7
 S -2.2634991248 -0.2439450980 -0.5784327007
 O  2.7706441703  0.1680872662  0.6944695168
 O  2.3050520430 -0.5729565115 -1.4322283478
 N  0.2833201670  0.5521109427  1.3261902051
 C  0.3851683632 -0.3167395410  0.1223488831
 C  1.8905300455 -0.2523714947 -0.3293019393
 C -0.5387601749 -0.0169750801 -1.0620640073
 H -0.5346509292  0.2365464584  1.8649640778
 H  0.0016683043  1.5065731782  1.0011121686
 H  0.2369476966 -1.3887015145  0.4367359655
 H  2.1482956497  0.3982611817  1.4224070930
 H -0.2558025292 -0.6930593716 -1.8672552765
 H -0.3042161902  0.9970296197 -1.3762235143
 H -2.8261630481  0.1178317720 -1.7551296061
14
step 8
 S -2.2630532292 -0.2420381790 -0.5776115670
 O  2.7698274239  0.1733607344  0.6972743411
 O  2.3063410894 -0.5710184779 -1.4311698651
 N  0.2851528737  0.5525259813  1.3279205192
 C  0.3829259105 -0.3154626035  0.1222370338
 C  1.8888983748 -0.2483403724 -0.3293884287
 C -0.5386174387 -0.0166422464 -1.0625334075
 H -0.5339112018  0.2307964110  1.8701759219
 H -0.0027591212  1.4980428085  1.0068485376
 H  0.2405486024 -1.3786054378  0.4298643432
 H  2.1371678343  0.4040886902  1.4348598433
 H -0.2546989504 -0.6955958633 -1.8648210050
 H -0.2982200629  0.9973510245 -1.3776409373
 H -2.8298131474  0.1156360700 -1.7479027766
14
step 9
 S -2.2626360864 -0.2401113573 -0.5768259817
 O  2.7688345301  0.1785752132  0.6999402183
 O  2.3075754116 -0.5690406463 -1.4300127554
 N  0.2868005835  0.5529818207  1.3296226306
 C  0.3809233823 -0.3145073337  0.1221997403
 C  1.8875410385 -0.2442619749 -0.3293634285
 C -0.5385169888 -0.0162556194 -1.0630235722
 H -0.5328569904  0.2249876272  1.8757757440
 H -0.0065061840  1.4890686473  1.0128006998
 H  0.2439331355 -1.3660943951  0.4230738801
 H  2.1267020499  0.4097691658  1.4465384862
 H -0.2536582004 -0.6978752439 -1.8625552687
 H -0.2932524959  0.9978374892 -1.3797787846
 H -2.8322887027  0.1130850258 -1.7394529646
14
step 10
 S -2.2622411827 -0.2381690046 -0.5760591541
 O  2.7675940675  0.1837519239  0.7025356479
 O  2.3087509857 -0.5670193941 -1.4287517919
 N  0.2882360979  0.5533865400  1.3313375062
 C  0.3791971849 -0.3137694366  0.1222100988
 C  1.8864736850 -0.2401353105 -0.3292137281
 C -0.5384582457 -0.0157964838 -1.0635391832
 H -0.5309988402  0.2193067612  1.8814992069
 H -0.0098437726  1.4806961844  1.0186234247
 H  0.2468836058 -1.3524258086  0.4167915406
 H  2.1179414537  0.4149023558  1.4561094333
 H -0.2526931640 -0.6998970862 -1.8604839944
 H -0.2894152346  0.9983315051 -1.3826106029
 H -2.8337787497  0.1103400058 -1.7303011135
14
step 11
 S -2.2618602975 -0.2362164449 -0.5752912336
 O  2.7660541263  0.1889058459  0.7051087938
 O  2.3098648034 -0.5649511958 -1.4273827224
 N  0.2894416391  0.5536520530  1.3331009243
 C  0.3777816558 -0.3131238357  0.1222376077
 C  1.8857081727 -0.2359610215 -0.3289275277
 C -0.5384400939 -0.0152483018 -1.0640846235
 H -0.5279403347  0.2139156692  1.8871249625
 H -0.0130605293  1.4739382618  1.0239870944
 H  0.2491742043 -1.3390657397  0.4114802945
 H  2.1116394268  0.4192038941  1.4625948853
 H -0.2518190044 -0.7016657783 -1.8586302441
 H -0.2867896147  0.9986848693 -1.3860950414
 H -2.8345294777  0.1075892353 -1.7210641983
14
step 12
 S -2.2614842152 -0.2342594604 -0.5745008332
 O  2.7641855938  0.1940445505  0.7076832256
 O  2.3109150258 -0.5628325642 -1.4259019977
 N  0.2904090253  0.5537078231  1.3349375354
 C  0.3767072546 -0.3124382862  0.1222517755
 C  1.8852524040 -0.2317414209 -0.3284948881
 C -0.5384613284 -0.0145984279 -1.0646637598
 H -0.5234298230  0.2089297181  1.8925050957
 H -0.0164105696  1.4696126658  1.0286341021
 H  0.2505928425 -1.3275316473  0.4075922289
 H  2.1082045306  0.4225241402  1.4654441503
 H -0.2510535032 -0.7031888802 -1.8570122497
 H -0.2854316112  0.9987772221 -1.3901822141
 H -2.8348217700  0.1050329646 -1.7124064803
14
step 13
 S -2.2611036735 -0.2323036909 -0.5736669318
 O  2.7619836000  0.1991681440  0.7102563425
 O  2.3119010513 -0.5606600145 -1.4243067729
 N  0.2911382863  0.5535130359  1.3368562889
 C  0.3759982557 -0.3115919349  0.1222268819
 C  1.8851101892 -0.2274805548 -0.3279079282
 C -0.5385211295 -0.0138394450 -1.0652798109
 H -0.5173904942  0.2044036930  1.8975853896
 H -0.0200618864  1.4681949032  1.0324276929
 H  0.2509665255 -1.3191814219  0.4055090082
 H  2.1076803226  0.4248508090  1.4645615013
 H -0.2504168053 -0.7044753078 -1.8556420158
 H -0.2853683924  0.9985310489 -1.3948191940
 H -2.8349414664  0.1028646453 -1.7049795116
14
step 14
 S -2.2607104643 -0.2303540269 -0.5727710226
 O  2.7594677071  0.2042692705  0.7127992769
 O  2.3128235777 -0.5584301064 -1.4225948717
 N  0.2916357566  0.5530641669  1.3388479843
 C  0.3756704979 -0.3104956986  0.1221472017
 C  1.8852812356 -0.2231841776 -0.3271610706
 C -0.5386193509 -0.0129698849 -1.0659351987
 H -0.5099303702  0.2003248237  1.9024126702
 H -0.0240590711  1.4697266244  1.0353827090
 H  0.2501890735 -1.3149798082  0.4054772426
 H  2.1097420792  0.4263077346  1.4603096183
 H -0.2499311753 -0.7055340583 -1.8545241840
 H -0.2865964038  0.9979209361 -1.3999547554
 H -2.8351453049  0.1012513259 -1.6993545279
14
step 15
 S -2.2602985470 -0.2284140407 -0.5717992239
 O  2.7566812640  0.2093334944  0.7152579947
 O  2.3136845933 -0.5561395492 -1.4207649406
 N  0.2919125472  0.5523955763  1.3408857572
 C  0.3757295436 -0.3091089230  0.1220112456
 C  1.8857612722 -0.2188596506 -0.3262509577
 C -0.5387566766 -0.0119943582 -1.0666313912
 H -0.5013302914  0.1966145153  1.9071303908
 H -0.0283142554  1.4738099275  1.0376660152
 H  0.2482434140 -1.3153080434  0.4075564651
 H  2.1137078444  0.4271469496  1.4534918856
 H -0.2496202636 -0.7063735176 -1.8536557178
 H -0.2890812568  0.9969768230 -1.4055424271
 H -2.8356267585  0.1003146966 -1.6959564524
14
step 16
 S -2.2598649714 -0.2264855489 -0.5707439895
 O  2.7536890837  0.2143403155  0.7175565815
 O  2.3144873185 -0.5537853490 -1.4188167030
 N  0.2919836140  0.5515728887  1.3429285365
 C  0.3761698304 -0.3074464841  0.1218335059
 C  1.8865422438 -0.2145157632 -0.3251761907
 C -0.5389345851 -0.0109230984 -1.0673687193
 H -0.4920102738  0.1931389940  1.9119614288
 H -0.0326290187  1.4796894006  1.0395666904
 H  0.2452116579 -1.3198839126  0.4115974837
 H  2.1185765979  0.4277308485  1.4452990430
 H -0.2495080302 -0.7070015062 -1.8530263543
 H -0.2927593018  0.9957809022 -1.4115416227
 H -2.8364879288  0.1001163160 -1.6950105107
14
step 17
 S -2.2594104171 -0.2245683823 -0.5696050675
 O  2.7505720103  0.2192654277  0.7196044884
 O  2.3152360855 -0.5513648793 -1.4167512398
 N  0.2918669289  0.5506811440  1.3449268408
 C  0.3769750832 -0.3055737186  0.1216430093
 C  1.8876124449 -0.2101626483 -0.3239371741
 C -0.5391550804 -0.0097710053 -1.0681461998
 H -0.4824751943  0.1897290753  1.9171780468
 H -0.0367389640  1.4863944529  1.0414450783
 H  0.2412688351 -1.3278239804  0.4172601864
 H  2.1231175343  0.4284967548  1.4371939584
 H -0.2496174602 -0.7074256257 -1.8526197902
 H -0.2975406932  0.9944585060 -1.4179164124
 H -2.8377233948  0.1006500093 -1.6965124353
14
step 18
 S -2.2589392072 -0.2226604298 -0.5683894851
 O  2.7474167657  0.2240844133  0.7213093130
 O  2.3159362706 -0.5488761930 -1.4145713462
 N  0.2915819091  0.5498106492  1.3468299524
 C  0.3781200820 -0.3035908343  0.1214786015
 C  1.8889565690 -0.2058111987 -0.3225352211
 C -0.5394203561 -0.0085561551 -1.0689613399
 H -0.4732448302  0.1862073402  1.9230582289
 H -0.0403669967  1.4929020068  1.0436763293
 H  0.2366623787 -1.3378234648  0.4240650869
 H  2.1260362692  0.4298967263  1.4307062720
 H -0.2499691760 -0.7076552860 -1.8524154941
 H -0.3033140724  0.9931633446 -1.4246332889
 H -2.8392204457  0.1018434051 -1.7002287767
14
step 19
 S -2.2584588152 -0.2207579231 -0.5671105652
 O  2.7443016513  0.2287781339  0.7225947946
 O  2.3165941308 -0.5463180332 -1.4122817781
 N  0.2911469886  0.5490436419  1.3485932500
 C  0.3795728983 -0.3016132691  0.1213831971
 C  1.8905555867 -0.2014729918 -0.3209724318
 C -0.5397322741 -0.0072980756 -1.0698101114
 H -0.4647756737  0.1824207389  1.9298353349
 H -0.0432717609  1.4982829534  1.0465983588
 H  0.2316827742 -1.3483873301  0.4314613807
 H  2.1262104650  0.4323151682  1.4271484571
 H -0.2505801568 -0.7077026880 -1.8523908573
 H -0.3099520138  0.9920592018 -1.4316564070
 H -2.8407748301  0.1035679736 -1.7057278647
14
step 20
 S -2.2579789690 -0.2188559276 -0.5657862082
 O  2.7412809529  0.2333383159  0.7234200321
 O  2.3172166683 -0.5436898943 -1.4098894119
 N  0.2905767550  0.5484434579  1.3501846613
 C  0.3812973375 -0.2997532416  0.1213980561
 C  1.8923865570 -0.1971601026 -0.3192514810
 C -0.5400918377 -0.0060158324 -1.0706870310
 H -0.4573891935  0.1782724674  1.9376475483
 H -0.0452843544  1.5018143163  1.0504726716
 H  0.2266333984 -1.3580464893  0.4388930578
 H  2.1229459625  0.4359823439  1.4273116077
 H -0.2514627344 -0.7075840529 -1.8525233797
 H -0.3173169921  0.9912995908 -1.4389421801
 H -2.8421189838  0.1056555367 -1.7124339915
14
step 21
 S -2.2575105515 -0.2169489430 -0.5644367946
 O  2.7383739390  0.2377713232  0.7237928338
 O  2.3178114780 -0.5409920494 -1.4074032582
 N  0.2898797664  0.5480470927  1.3515892920
 C  0.3832550914 -0.2981058808  0.1215582705
 C  1.8944226043 -0.1928850046 -0.3173756339
 C -0.5404987172 -0.0047261888 -1.0715853768
 H -0.4512216917  0.1737461959  1.9464988462
 H -0.0463316590  1.5030531025  1.0554592044
 H  0.2218046782 -1.3655208752  0.4458514952
 H  2.1161566182  0.4409156732  1.4312540038
 H -0.2526239272 -0.7073204049 -1.8527925489
 H -0.3252670605  0.9910080372 -1.4464337179
 H -2.8429564819  0.1079178074 -1.7196938127
14
step 22
 S -2.2570644917 -0.2150315112 -0.5630830675
 O  2.7355636042  0.2420983435  0.7237708827
 O  2.3183865717 -0.5382255229 -1.4048342861
 N  0.2890581087  0.5478613341  1.3528115291
 C  0.3854074932 -0.2967405296  0.1218897903
 C  1.8966332588 -0.1886605369 -0.3153489499
 C -0.5409508923 -0.0034420778 -1.0724974974
 H -0.4462079459  0.1689161061  1.9562420201
 H -0.0464478231  1.5018761224  1.0616038961
 H  0.2174545526 -1.3698224656  0.4519113946
 H  2.1063823071  0.4469162989  1.4382814612
 H -0.2540651517 -0.7069377025 -1.8531811840
 H -0.3336605337  0.9912616702 -1.4540560702
 H -2.8429965659  0.1101657156 -1.7268436562
14
step 23
 S -2.2566507891 -0.2130987424 -0.5617442508
 O  2.7328056582  0.2463519014  0.7234500766
 O  2.3189501978 -0.5353920003 -1.4021950789
 N  0.2881091079  0.5478623389  1.3538743285
 C  0.3877168996 -0.2956961741  0.1224078230
 C  1.8989852130 -0.1844999041 -0.3131766225
 C -0.5414444587 -0.0021716128 -1.0734151578
 H -0.4421022290  0.1639393559  1.9665894458
 H -0.0457758995  1.4984908399  1.0688371252
 H  0.2137946459 -1.3703106576  0.4567526869
 H  2.0946362498  0.4536227798  1.4471296179
 H -0.2557822492 -0.7064661971 -1.8536760625
 H -0.3423591348  0.9920806006 -1.4617132525
 H -2.8419841707  0.1122261006 -1.7332693534
14
step 24
 S -2.2562777465 -0.2111467143 -0.5604365347
 O  2.7300432318  0.2505703580  0.7229456550
 O  2.3195106726 -0.5324936733 -1.3994993202
 N  0.2870287270  0.5479984574  1.3548158914
 C  0.3901478453 -0.2949794336  0.1231161596
 C  1.9014432827 -0.1804167122 -0.3108655255
 C -0.5419736206 -0.0009177908 -1.0743298433
 H -0.4385306268  0.1590322443  1.9771495749
 H -0.0445601534  1.4934183244  1.0769823153
 H  0.2109804270 -1.3667176476  0.4601730942
 H  2.0821569556  0.4605965078  1.4562609126
 H -0.2577658689 -0.7059390367 -1.8542677109
 H -0.3512295265  0.9934247584 -1.4692879722
 H -2.8397231472  0.1139547236 -1.7384542491
14
step 25
 S -2.2559514228 -0.2091727380 -0.5591719604
 O  2.7272213108  0.2547925067  0.7223734644
 O  2.3200762430 -0.5295330327 -1.3967611591
 N  0.2858154968  0.5481962312  1.3556843111
 C  0.3926680727 -0.2945639552  0.1240070169
 C  1.9039713131 -0.1764250421 -0.3084249103
 C -0.5425308516  0.0003210633 -1.0752329463
 H -0.4350614209  0.1544354077  1.9874806969
 H -0.0431277789  1.4874439925  1.0857751995
 H  0.2091037794 -1.3591575125  0.4620951974
 H  2.0701644770  0.4674059767  1.4641605368
 H -0.2600021849 -0.7053902128 -1.8549494406
 H -0.3601434224  0.9951987252 -1.4766444805
 H -2.8360922306  0.1152454695 -1.7420143778
14
step 26
 S -2.2556752936 -0.2071755063 -0.5579576791
 O  2.7242971978  0.2590535790  0.7218360646
 O  2.3206549934 -0.5265126436 -1.3939945429
 N  0.2844736626  0.5483695622  1.3565309727
 C  0.3952494401 -0.2943907218  0.1250611604
 C  1.9065328312 -0.1725395530 -0.3058671898
 C -0.5431071850  0.0015501826 -1.0761158046
 H -0.4312785999  0.1503751512  1.9971507181
 H -0.0418578513  1.4815293208  1.0948945198
 H  0.2081872676 -1.3481252346  0.4625698028
 H  2.0596837624  0.4736892653  1.4695573784
 H -0.2624738544 -0.7048520450 -1.8557157984
 H -0.3689766987  0.9972638251 -1.4836344168
 H -2.8310544096  0.1160361125 -1.7437217600
14
step 27
 S -2.2554500905 -0.2051551493 -0.5567955401
 O  2.7212464396  0.2633828994  0.7214146380
 O  2.3212547965 -0.5234349449 -1.3912126045
 N  0.2830145825  0.5484318219  1.3574035246
 C  0.3978686082 -0.2943694932  0.1262483205
 C  1.9090913848 -0.1687756051 -0.3032087734
 C -0.5436925803  0.0027767530 -1.0769696006
 H -0.4268465438  0.1470273602  2.0057929133
 H -0.0411365373  1.4766815094  1.1040034477
 H  0.2081807070 -1.3344834958  0.4617748396
 H  2.0514457998  0.4791908915  1.4715550010
 H -0.2651610996 -0.7043524649 -1.8565606229
 H -0.3776080944  0.9994556243 -1.4901050321
 H -2.8246606683  0.1163111474 -1.7435173750
14
step 28
 S -2.2552737976 -0.2031132034 -0.5556819790
 O  2.7180652504  0.2678027364  0.7211651464
 O  2.3218833057 -0.5203021035 -1.3884272172
 N  0.2814560820  0.5483098569  1.3583392019
 C  0.4005073620 -0.2943823162  0.1275281980
 C  1.9116108099 -0.1651492936 -0.3004705385
 C -0.5442763219  0.0040080758 -1.0777851176
 H -0.4215583385  0.1444888390  2.0131511090
 H -0.0413017435  1.4737905776  1.1127973512
 H  0.2089620764 -1.3194267527  0.4600062609
 H  2.0458464622  0.4837795168  1.4696934602
 H -0.2680425769 -0.7039124385 -1.8574750869
 H -0.3859180470  1.0016042494 -1.4959088229
 H -2.8170488547  0.1161018723 -1.7415149684
14
step 29
 S -2.2551418007 -0.2010525219 -0.5546082083
 O  2.7147712121  0.2723277683  0.7211169221
 O  2.3225479443 -0.5171159591 -1.3856487254
 N  0.2798203380  0.5479577534  1.3593595147
 C  0.4031522248 -0.2942905228  0.1288524621
 C  1.9140554908 -0.1616772702 -0.2976779287
 C -0.5448474176  0.0052498087 -1.0785524304
 H -0.4153659533  0.1427583699  2.0191101452
 H -0.0425868071  1.4734615122  1.1210488500
 H  0.2103467749 -1.3044057829  0.4576554048
 H  2.0429351330  0.4874545051  1.4639707455
 H -0.2710960913 -0.7035439617 -1.8584460665
 H -0.3937881957  1.0035548182 -1.5009135032
 H -2.8084380138  0.1154841953 -1.7379955069
14
step 30
 S -2.2550472032 -0.1989770964 -0.5535607445
 O  2.7114032033  0.2769648975  0.7212725941
 O  2.3232559110 -0.5138780605 -1.3828859170
 N  0.2781313086  0.5473670193  1.3604672633
 C  0.4057929637 -0.2939466435  0.1301683775
 C  1.9163907631 -0.1583763896 -0.2948607857
 C -0.5453949704  0.0065045082 -1.0792606244
 H -0.4083905508  0.1417292574  2.0237102452
 H -0.0450779356  1.4758854555  1.1286383237
 H  0.2121092174 -1.2909956891  0.4551671533
 H  2.0424151639  0.4903466721  1.4548415682
 H -0.2742989423 -0.7032486989 -1.8594548416
 H -0.4011017732  1.0051856279 -1.5050111682
 H -2.7991177031  0.1145735874 -1.7333910173
14
step 31
 S -2.2549813253 -0.1968917680 -0.5525223352
 O  2.7080204971  0.2817133160  0.7216089831
 O  2.3240141993 -0.5105897945 -1.3801462671
 N  0.2764126580  0.5465700324  1.3616465704
 C  0.4084198886 -0.2932117032  0.1314242509
 C  1.9185835968 -0.1552630580 -0.2920524764
 C -0.5459085232  0.0077706706 -1.0798975432
 H -0.4009120208  0.1411946508  2.0271437842
 H -0.0486992996  1.4807915755  1.1355608037
 H  0.2140189161 -1.2807011305  0.4529768782
 H  2.0436540259  0.4927138913  1.4431951445
 H -0.2776277156 -0.7030175371 -1.8604765335
 H -0.4077449055  1.0064221384 -1.5081257516
 H -2.7894316353  0.1135166045 -1.7282557193
14
step 32
 S -2.2549344057 -0.1948018191 -0.5514733443
 O  2.7047003359  0.2865651218  0.7220799815
 O  2.3248295962 -0.5072525906 -1.3774363691
 N  0.2746865636  0.5456353888  1.3628661165
 C  0.4110202080 -0.2919760522  0.1325760604
 C  1.9206034435 -0.1523523163 -0.2892884506
 C -0.5463783506  0.0090423807 -1.0804496132
 H -0.3933375994  0.1408662028  2.0297324155
 H -0.0532314674  1.4874971893  1.1419080741
 H  0.2158878044 -1.2747188820  0.4514333117
 H  2.0457163148  0.4949266881  1.4302973018
 H -0.2810577131 -0.7028312270 -1.8614804726
 H -0.4136088116  1.0072454468 -1.5102180814
 H -2.7797551242  0.1124787309 -1.7232224252
14
step 33
 S -2.2548964937 -0.1927124494 -0.5503935983
 O  2.7015324621  0.2915070369  0.7226231286
 O  2.3257086739 -0.5038681704 -1.3747625150
 N  0.2729730105  0.5446563229  1.3640851068
 C  0.4135743647 -0.2901790062  0.1335936608
 C  1.9224230521 -0.1496567838 -0.2866043477
 C -0.5467956770  0.0103095663 -1.0809017769
 H -0.3861500303  0.1404060165  2.0318833259
 H -0.0583571161  1.4950391531  1.1478331780
 H  0.2176172273 -1.2737123575  0.4507263075
 H  2.0474457811  0.4974357053  1.4176710444
 H -0.2845621048 -0.7026620492 -1.8624315016
 H -0.4185925391  1.0076945564 -1.5112879173
 H -2.7704667182  0.1116285917 -1.7189439641
14
step 34
 S -2.2548584643 -0.1906281726 -0.5492645900
 O  2.6986091039  0.2965237092  0.7231713067
 O  2.3266577847 -0.5004388068 -1.3721313582
 N  0.2712888119  0.5437353192  1.3652609688
 C  0.4160537306 -0.2878209716  0.1344644032
 C  1.9240190505 -0.1471856037 -0.2840337734
 C -0.5471528105  0.0115587912 -1.0812375496
 H -0.3798387321  0.1394698242  2.0340262174
 H -0.0637198199  1.5023448484  1.1535090116
 H  0.2192278777 -1.2776718873  0.4508445198
 H  2.0476220198  0.5007137354  1.4068939814
 H -0.2881109152 -0.7024763502 -1.8632921301
 H -0.4226058226  1.0078622383 -1.5113726286
 H -2.7619160153  0.1111195197 -1.7160229729
14
step 35
 S -2.2548130333 -0.1885522129 -0.5480717918
 O  2.6960104250  0.3016025321  0.7236691144
 O  2.3276830523 -0.4969675617 -1.3695505591
 N  0.2696459453  0.5429684350  1.3663575072
 C  0.4184207449 -0.2849634464  0.1351926852
 C  1.9253721867 -0.1449435313 -0.2816059762
 C -0.5474431875  0.0127744912 -1.0814392177
 H -0.3748225548  0.1377562733  2.0365380379
 H -0.0689812683  1.5083990563  1.1590912762
 H  0.2208597822 -1.2859148576  0.4515803719
 H  2.0451924595  0.5051734410  1.3993211115
 H -0.2916700160 -0.7022377011 -1.8640253167
 H -0.4255717651  1.0078847501 -1.5105424989
 H -2.7543915188  0.1110706685 -1.7149379948
14
step 36
 S -2.2547556115 -0.1864860094 -0.5468067081
 O  2.6937884054  0.3067388744  0.7240900420
 O  2.3287903313 -0.4934584553 -1.3670293378
 N  0.2680495400  0.5424319750  1.3673521128
 C  0.4206316550 -0.2817169057  0.1357955804
 C  1.9264673473 -0.1429301982 -0.2793434835
 C -0.5476613402  0.0139405355 -1.0814882069
 H -0.3713782383  0.1350538174  2.0396686860
 H -0.0738673858  1.5123783163  1.1646917089
 H  0.2227420228 -1.2972250354  0.4525801149
 H  2.0395303849  0.5110771446  1.3957947636
 H -0.2952004354 -0.7019104786 -1.8645976448
 H -0.4274293395  1.0079261127 -1.5088930238
 H -2.7480936112  0.1115510836 -1.7159778452
14
step 37
 S -2.2546847988 -0.1844289230 -0.5454682569
 O  2.6919554032  0.3119398097  0.7244480634
 O  2.3299851700 -0.4899165602 -1.3645786371
 N  0.2664966176  0.5421731767  1.3682407346
 C  0.4226404764 -0.2782216351  0.1362967232
 C  1.9272934212 -0.1411399352 -0.2772611779
 C -0.5478027874  0.0150420371 -1.0813656714
 H -0.3695901604  0.1312755839  2.0434867632
 H -0.0782006840  1.5137428843  1.1703610725
 H  0.2251442277 -1.3100755562  0.4534189882
 H  2.0306189704  0.5184736120  1.3964497886
 H -0.2986576793 -0.7014627840 -1.8649818676
 H -0.4281351652  1.0081584679 -1.5065349531
 H -2.7431183257  0.1125690634 -1.7191973191
14
step 38
 S -2.2546024644 -0.1823782178 -0.5440631574
 O  2.6904821513  0.3172243783  0.7247975414
 O  2.3312727208 -0.4863479651 -1.3622111446
 N  0.2649763752  0.5422051232  1.3690394535
 C  0.4244035884 -0.2746272596  0.1367201482
 C  1.9278434995 -0.1395615529 -0.2753648432
 C -0.5478638823  0.0160672530 -1.0810532028
 H -0.3693352144  0.1264730138  2.0478590427
 H -0.0819192713  1.5122888342  1.1760829256
 H  0.2283270449 -1.3228633838  0.4536757771
 H  2.0190770054  0.5271860458  1.4006997510
 H -0.3019919500 -0.7008695735 -1.8651596245
 H -0.4276655511  1.0087401738 -1.5035833105
 H -2.7394544570  0.1140704070 -1.7244045190
14
step 39
 S -2.2545133590 -0.1803293169 -0.5426052284
 O  2.6893063554  0.3226201585  0.7252214289
 O  2.3326576776 -0.4827596615 -1.3599409635
 N  0.2634725548  0.5425059330  1.3697824434
 C  0.4258835654 -0.2710758667  0.1370858936
 C  1.9281152009 -0.1381782465 -0.2736504000
 C -0.5478416291  0.0170094293 -1.0805336068
 H -0.3703065811  0.1208255598  2.0524712302
 H -0.0850848175  1.5081657624  1.1817742827
 H  0.2325032729 -1.3341016173  0.4529901623
 H  2.0060108189  0.5368591318  1.4074106235
 H -0.3051486956 -0.7001150139 -1.8651234898
 H -0.4260181621  1.0097944460 -1.5001467233
 H -2.7369950416  0.1159451543 -1.7311827385
14
step 40
 S -2.2544243721 -0.1782762613 -0.5411137389
 O  2.6883481356  0.3281581761  0.7258141043
 O  2.3341441043 -0.4791591074 -1.3577827242
 N  0.2619674495  0.5430217751  1.3705170374
 C  0.4270513965 -0.2676899326  0.1374078588
 C  1.9281111394 -0.1369684221 -0.2721058419
 C -0.5477335171  0.0178681351 -1.0797919631
 H -0.3720696032  0.1146077476  2.0568835855
 H -0.0878802301  1.5018642360  1.1872930117
 H  0.2378136259 -1.3425541249  0.4510987378
 H  1.9927613995  0.5470396561  1.4151787206
 H -0.3080702913 -0.6991927890 -1.8648765929
 H -0.4232133209  1.0113911487 -1.4963178943
 H -2.7355593595  0.1180421124 -1.7389417394
14
step 41
 S -2.2543435924 -0.1762122845 -0.5396111820
 O  2.6875250311  0.3338675433  0.7266643011
 O  2.3357353819 -0.4755538342 -1.3557506206
 N  0.2604461932  0.5436733697  1.3712967662
 C  0.4278879989 -0.2645650770  0.1376932301
 C  1.9278390737 -0.1359063234 -0.2707126028
 C -0.5475373319  0.0186501058 -1.0788163791
 H -0.3741349536  0.1081438854  2.0606069958
 H -0.0905959809  1.4941678735  1.1924506708
 H  0.2443155123 -1.3473141454  0.4478519131
 H  1.9806572380  0.5572616596  1.4226024420
 H -0.3106979146 -0.6981058911 -1.8644320282
 H -0.4192947412  1.0135350120 -1.4921672764
 H -2.7349213963  0.1201868693 -1.7469875430
14
step 42
 S -2.2542793427 -0.1741304064 -0.5381208854
 O  2.6867633241  0.3397715589  0.7278430848
 O  2.3374341451 -0.4719509744 -1.3538572844
 N  0.2589000990  0.5443657171  1.3721738526
 C  0.4283847670 -0.2617659423  0.1379428922
 C  1.9273117225 -0.1349630071 -0.2694479353
 C -0.5472510055  0.0193692385 -1.0775986253
 H -0.3760339116  0.1017586572  2.0631815592
 H -0.0936020047  1.4860652397  1.1970317289
 H  0.2519806138 -1.3478467365  0.4432189529
 H  1.9708334829  0.5671124176  1.4284829585
 H -0.3129739749 -0.6968649504 -1.8638106920
 H -0.4143294576  1.0161620382 -1.4877402751
 H -2.7348389865  0.1222007710 -1.7545973886
14
step 43
 S -2.2542393194 -0.1720239761 -0.5366648134
 O  2.6860048210  0.3458854160  0.7293972642
 O  2.3392422177 -0.4683568266 -1.3521126865
 N  0.2573280562  0.5450007723  1.3731921505
 C  0.4285435286 -0.2593239421  0.1381521689
 C  1.9265462503 -0.1341074219 -0.2682875344
 C -0.5468725233  0.0200457178 -1.0761345311
 H -0.3773838457  0.0957317606  2.0642444598
 H -0.0973028121  1.4786177444  1.2008190484
 H  0.2606975715 -1.3440107564  0.4372867248
 H  1.9641295219  0.5762746378  1.4319421487
 H -0.3148447606 -0.6954855098 -1.8630380332
 H -0.4084067819  1.0191449438 -1.4830583474
 H -2.7350797828  0.1239179200 -1.7610889736
14
step 44
 S -2.2542299070 -0.1698871267 -0.5352617686
 O  2.6852103282  0.3522151143  0.7313467290
 O  2.3411605383 -0.4647764494 -1.3505231658
 N  0.2557357362  0.5454921715  1.3743812050
 C  0.4283760829 -0.2572360107  0.1383115701
 C  1.9255636043 -0.1333075196 -0.2672082103
 C -0.5463999110  0.0207043058 -1.0744241527
 H -0.3779376226  0.0902610231  2.0635797562
 H -0.1020770431  1.4727915153  1.2036245341
 H  0.2702778668 -1.3360704999  0.4302553914
 H  1.9610417275  0.5845491622  1.4324801139
 H -0.3162631383 -0.6939844688 -1.8621400678
 H -0.4016360860  1.0223069817 -1.4781235176
 H -2.7354418890  0.1251992497 -1.7658774194
14
step 45
 S -2.2542556664 -0.1677151256 -0.5339260663
 O  2.6843614157  0.3587567988  0.7336835975
 O  2.3431890093 -0.4612136573 -1.3490908402
 N  0.2541330748  0.5457798536  1.3757519572
 C  0.4279034347 -0.2554644507  0.1384072773
 C  1.9243880263 -0.1325308625 -0.2661892974
 C -0.5458313625  0.0213723173 -1.0724716716
 H -0.3776151195  0.0854380812  2.0611489155
 H -0.1082106670  1.4692810962  1.2053189638
 H  0.2804633011 -1.3246984433  0.4224324621
 H  1.9617050811  0.5918702920  1.4299957509
 H -0.3171906915 -0.6923768738 -1.8611390703
 H -0.3941441546  1.0254419397 -1.4729258211
 H -2.7357690908  0.1259407471 -1.7685180022
14
step 46
 S -2.2543190060 -0.1655046279 -0.5326666315
 O  2.6834615339  0.3654964838  0.7363721940
 O  2.3453263645 -0.4576707449 -1.3478131428
 N  0.2525312860  0.5458413830  1.3772944736
 C  0.4271546498 -0.2539381222  0.1384219685
 C  1.9230467619 -0.1317454205 -0.2652143836
 C -0.5451654581  0.0220770202 -1.0702851805
 H -0.3765157620  0.0812346259  2.0570998854
 H -0.1158385538  1.4683677278  1.2058579947
 H  0.2909387208 -1.3109605521  0.4142215278
 H  1.9658774794  0.5983108754  1.4247975042