15
step 0
 O  0.1408555986 -0.0268892119 -0.2754716561
 C -1.9654253122 -0.0497364008 -1.4558558650
 C  2.3319082836 -0.0205297002  0.7391683725
 C  0.8126716241  0.0511091982  0.9906536995
 C -1.2795082561  0.0368875795 -0.0780056745
 H  2.6482497988  0.8021230957  0.1054419087
 H  2.5890812540 -0.9535795951  0.2475234661
 H  2.8694754430  0.0375565754  1.6808370845
 H  0.5063553438 -0.7728217914  1.6474272006
 H  0.5661642080  0.9872781096  1.5072482596
 H -1.6231863819 -0.7873006395  0.5596796116
 H -1.5636468129  0.9727981927  0.4193719336
 H -1.6465108859  0.7730951914 -2.0880589748
 H -1.7075461734 -0.9826567470 -1.9473778771
 H -3.0440377332 -0.0029338565 -1.3396814859
15
step 1
 O  0.1422697264 -0.0251279806 -0.2742260909
 C -1.9666380506 -0.0426938818 -1.4502913145
 C  2.3340346287 -0.0187490287  0.7395813188
 C  0.8155171364  0.0498193071  0.9931087540
 C -1.2826111730  0.0407934187 -0.0791476226
 H  2.6398025202  0.8115830590  0.1022658895
 H  2.5923392980 -0.9573904492  0.2445021796
 H  2.8763092287  0.0340856300  1.6801271810
 H  0.4954911684 -0.7672239538  1.6479364294
 H  0.5686436244  0.9730107544  1.5038286312
 H -1.6191065228 -0.7883250969  0.5519735931
 H -1.5621143491  0.9685965354  0.4222718729
 H -1.6358595106  0.7703577151 -2.0859921310
 H -1.7190257015 -0.9817268696 -1.9512633082
 H -3.0441520255 -0.0026091588 -1.3317753792
15
step 2
 O  0.1436645538 -0.0233699417 -0.2729945459
 C -1.9678395346 -0.0357742778 -1.4448278483
 C  2.3361683942 -0.0170110553  0.7399533964
 C  0.8183359624  0.0484555999  0.9954875690
 C -1.2856086490  0.0446271746 -0.0802682516
 H  2.6313946172  0.8205366445  0.0994430857
 H  2.5954325932 -0.9605070804  0.2417157050
 H  2.8830487137  0.0307567622  1.6793188077
 H  0.4848748151 -0.7619748377  1.6485615157
 H  0.5708759801  0.9601658743  1.5010952534
 H -1.6152252286 -0.7894405385  0.5444967767
 H -1.5608080717  0.9649625627  0.4254330657
 H -1.6254682009  0.7679236954 -2.0840056847
 H -1.7304636223 -0.9802021801 -1.9546112427
 H -3.0443817967 -0.0019595917 -1.3239680980
15
step 3
 O  0.1450276015 -0.0216107842 -0.2717853428
 C -1.9690278815 -0.0290577191 -1.4395404613
 C  2.3383222792 -0.0153460526  0.7402514881
 C  0.8211132489  0.0469436267  0.9977304498
 C -1.2884137570  0.0483374857 -0.0813474524
 H  2.6230497016  0.8285664066  0.0972750376
 H  2.5982344823 -0.9623503430  0.2393439993
 H  2.8896311712  0.0276928752  1.6783185167
 H  0.4747041415 -0.7573675281  1.6493978296
 H  0.5726405000  0.9500105971  1.4996704566
 H -1.6117056744 -0.7907240493  0.5374261814
 H -1.5599242123  0.9623837344  0.4291048844
 H -1.6155482461  0.7660455037 -2.0821498374
 H -1.7418354999 -0.9775794178 -1.9569548125
 H -3.0448286519 -0.0006746129 -1.3163236149
15
step 4
 O  0.1463473444 -0.0198463015 -0.2706059420
 C -1.9702064994 -0.0226048249 -1.4344983773
 C  2.3405030023 -0.0137779837  0.7404522650
 C  0.8238300845  0.0452282219  0.9997928769
 C -1.2909483733  0.0518815889 -0.0823585422
 H  2.6148200554  0.8353424058  0.0959964491
 H  2.6006575950 -0.9624915327  0.2375001014
 H  2.8959984306  0.0250084300  1.6770469577
 H  0.4651742497 -0.7536435237  1.6505082249
 H  0.5737797795  0.9435275459  1.5000276277
 H -1.6086852276 -0.7922199448  0.5309085388
 H -1.5596138366  0.9612194310  0.4334750658
 H -1.6063083873  0.7649194864 -2.0804443563
 H -1.7530795950 -0.9735071305 -1.9579209359
 H -3.0455645332  0.0015318885 -1.3089035945
15
step 5
 O  0.1476133082 -0.0180724766 -0.2694625343
 C -1.9713843116 -0.0164526738 -1.4297623032
 C  2.3427099987 -0.0123237956  0.7405444477
 C  0.8264600461  0.0432864601  1.0016533656
 C -1.2931460048  0.0552291345 -0.0832661521
 H  2.6067893413  0.8406498061  0.0957548789
 H  2.6026630843 -0.9606849942  0.2362151202
 H  2.9021003125  0.0228063636  1.6754456782
 H  0.4564776285 -0.7509788882  1.6519166798
 H  0.5742437479  0.9412467769  1.5024026009
 H -1.6062693088 -0.7939300523  0.5250527924
 H -1.5599662147  0.9616498898  0.4386378191
 H -1.5979534686  0.7646771542 -2.0788739531
 H -1.7640977898 -0.9678203926 -1.9572574464
 H -3.0466227676  0.0049146206 -1.3017664534
15
step 6
 O  0.1488161297 -0.0162855810 -0.2683597110
 C -1.9725753233 -0.0106132503 -1.4253821046
 C  2.3449348291 -0.0109932482  0.7405297656
 C  0.8289674243  0.0411349005  1.0033175338
 C -1.2949536263  0.0583642727 -0.0840255580
 H  2.5990712280  0.8444051402  0.0965993026
 H  2.6042648623 -0.9568833590  0.2354316985
 H  2.9078977277  0.0211753919  1.6734827489
 H  0.4488030771 -0.7494767595  1.6536064227
 H  0.5741147092  0.9431519096  1.5067451476
 H -1.6045281029 -0.7958093987  0.5199268056
 H -1.5610000868  0.9636506750  0.4445747505
 H -1.5906806167  0.7653846418 -2.0773898159
 H -1.7747611292 -0.9605563360 -1.9548489715
 H -3.0479945080  0.0096910871 -1.2949663201
15
step 7
 O  0.1499476028 -0.0144822721 -0.2673002223
 C -1.9737976941 -0.0050739907 -1.4213948521
 C  2.3471612025 -0.0097891333  0.7404227632
 C  0.8313081537  0.0388283046  1.0048168219
 C -1.2963324510  0.0612855644 -0.0845838397
 H  2.5918046477  0.8466615741  0.0984773242
 H  2.6055291843 -0.9512371515  0.2350052146
 H  2.9133651756  0.0201876631  1.6711567284
 H  0.4423328425 -0.7491666639  1.6555225260
 H  0.5736025167  0.9486940680  1.5127291519
 H -1.6034960104 -0.7977679076  0.5155583241
 H -1.5626642022  0.9669987292  0.4511534783
 H -1.5846727019  0.7670492953 -2.0759169777
 H -1.7849184577 -0.9519530597 -1.9507223769
 H -3.0496306241  0.0160366620 -1.2885519290
15
step 8
 O  0.1510007220 -0.0126596800 -0.2662848338
 C -1.9750724393  0.0001998936 -1.4178233445
 C  2.3493655859 -0.0087078419  0.7402495212
 C  0.8334334425  0.0364503302  1.0062022302
 C -1.2972577359  0.0640038484 -0.0848828356
 H  2.5851463283  0.8476033892  0.1012407973
 H  2.6065697649 -0.9440793319  0.2347125590
 H  2.9184923949  0.0198967437  1.6684985475
 H  0.4372377259 -0.7500103789  1.6575784965
 H  0.5730105163  0.9569072910  1.5198179569
 H -1.6031734699 -0.7996778408  0.5119396947
 H -1.5648464808  0.9713084130  0.4581445249
 H -1.5800895360  0.7696313470 -2.0743661687
 H -1.7944072375 -0.9424329096 -1.9450419118
 H -3.0514483999  0.0240803615 -1.2825654937
15
step 9
 O  0.1519697304 -0.0108154748 -0.2653122839
 C -1.9764218488  0.0052614696 -1.4146753843
 C  2.3515184352 -0.0077403379  0.7400452658
 C  0.8352950547  0.0340996754  1.0075351682
 C -1.2977178452  0.0665387028 -0.0848634306
 H  2.5792611336  0.8475294876  0.1046597960
 H  2.6075383946 -0.9358940699  0.2342689587
 H  2.9232849297  0.0203359632  1.6655709991
 H  0.4336703708 -0.7519133853  1.6596659796
 H  0.5726841916  0.9665833211  1.5273614247
 H -1.6035306544 -0.8013859232  0.5090354537
 H -1.5673894180  0.9760889520  0.4652525972
 H -1.5770578504  0.7730583319 -2.0726481513
 H -1.8030661158 -0.9325691779 -1.9380932475
 H -3.0533418947  0.0339013517 -1.2770416079
15
step 10
 O  0.1528501634 -0.0089479174 -0.2643793443
 C -1.9778676936  0.0101765294 -1.4119441621
 C  2.3535860998 -0.0068736271  0.7398508020
 C  0.8368507946  0.0318759798  1.0088780152
 C -1.2977128391  0.0689143704 -0.0844704454
 H  2.5743107430  0.8468256143  0.1084448323
 H  2.6086109962 -0.9272688137  0.2333534854
 H  2.9277633906  0.0215171961  1.6624656531
 H  0.4317574156 -0.7547403007  1.6616663700
 H  0.5729583363  0.9764533084  1.5346955263
 H -1.6045125026 -0.8027285151  0.5067916776
 H -1.5701085455  0.9808111576  0.4721555349
 H -1.5756614057  0.7772400748 -2.0706883453
 H -1.8107489655 -0.9230343161 -1.9302552431
 H -3.0551945581  0.0455264364 -1.2720062091
15
step 11
 O  0.1536388795 -0.0070558964 -0.2634809753
 C -1.9794293045  0.0150164789 -1.4096100217
 C  2.3555333935 -0.0060927289  0.7397078030
 C  0.8380690507  0.0298685309  1.0102862869
 C -1.2972528265  0.0711559306 -0.0836573658
 H  2.5704413094  0.8459256943  0.1122766280
 H  2.6099694235 -0.9188303618  0.2316431395
 H  2.9319612353  0.0234301796  1.6592971975
 H  0.4315915132 -0.7583322216  1.6634629479
 H  0.5741145045  0.9853384657  1.5412235389
 H -1.6060445456 -0.8035479367  0.5051459411
 H -1.5728109732  0.9849719268  0.4785438488
 H -1.5759325757  0.7820825160 -2.0684397534
 H -1.8173399208 -0.9145289758 -1.9219592745
 H -3.0568926143  0.0589288661 -1.2674756084
15
step 12
 O  0.1543340733 -0.0051389555 -0.2626105543
 C -1.9811216473  0.0198500100 -1.4076435942
 C  2.3573266945 -0.0053829794  0.7396532416
 C  0.8389318725  0.0281488246  1.0118031523
 C -1.2963562614  0.0732862045 -0.0823903248
 H  2.5677709561  0.8452644002  0.1158415144
 H  2.6117801736 -0.9111693986  0.2288535520
 H  2.9359209800  0.0260424511  1.6561953941
 H  0.4332242894 -0.7625238072  1.6649521851
 H  0.5763532414  0.9922551744  1.5464712012
 H -1.6080390112 -0.8037081071  0.5040368113
 H -1.5753119216  0.9881485210  0.4841553890
 H -1.5778464926  0.7874991095 -2.0658926263
 H -1.8227684011 -0.9076952961 -1.9136387019
 H -3.0583378048  0.0740287711 -1.2634555695
15
step 13
 O  0.1549352704 -0.0031973137 -0.2617601483
 C -1.9829535740  0.0247344293 -1.4060098665
 C  2.3589372745 -0.0047322579  0.7397136110
 C  0.8394365805  0.0267665147  1.0134561537
 C -1.2950483007  0.0753235633 -0.0806510058
 H  2.5663782221  0.8452255655  0.1188688439
 H  2.6141724183 -0.9047629948  0.2247816528
 H  2.9396889029  0.0292999433  1.6532950351
 H  0.4366611489 -0.7671582431  1.6660530971
 H  0.5797798508  0.9964781804  1.5501183156
 H -1.6104007463 -0.8031079687  0.5034119912
 H -1.5774481766  0.9900388368  0.4888020644
 H -1.5813184831  0.7934188894 -2.0630798038
 H -1.8270224210 -0.9030243724 -1.9056750299
 H -3.0594582165  0.0906953815 -1.2599404323
15
step 14
 O  0.1554433102 -0.0012318784 -0.2609207966
 C -1.9849264791  0.0297080801 -1.4046723569
 C  2.3603444030 -0.0041325718  0.7398999250
 C  0.8395961758  0.0257476403  1.0152555787
 C -1.2933592931  0.0772805816 -0.0784383668
 H  2.5662927609  0.8460935545  0.1211652172
 H  2.6172188933 -0.8999087897  0.2193430880
 H  2.9433084984  0.0331282208  1.6507244949
 H  0.4418585386 -0.7720987844  1.6667138507
 H  0.5843999390  0.9975735758  1.5520136504
 H -1.6130325703 -0.8016915969  0.5032344662
 H -1.5790881829  0.9904871128  0.4923875858
 H -1.5862051842  0.7997905301 -2.0600771327
 H -1.8301579100 -0.9007744045 -1.8983508682
 H -3.0602161047  0.1087510095 -1.2569123344
15
step 15
 O  0.1558603268  0.0007557549 -0.2600827766
 C -1.9870335955  0.0347855334 -1.4035964395
 C  2.3615377247 -0.0035804795  0.7402046153
 C  0.8394388592  0.0250940699  1.0171939231
 C -1.2913234473  0.0791633961 -0.0757692158
 H  2.5674896048  0.8480160103  0.1226396398
 H  2.6209235074 -0.8966851910  0.2125961965
 H  2.9468131853  0.0374343009  1.6485937301
 H  0.4487239611 -0.7772362051  1.6669152012
 H  0.5901210562  0.9954132562  1.5521798190
 H -1.6158397632 -0.7994543169  0.5034862529
 H -1.5801388673  0.9894960946  0.4949163667
 H -1.5923094455  0.8065819241 -2.0569987659
 H -1.8323017230 -0.9009186840 -1.8918205303
 H -3.0606118238  0.1279766043 -1.2543406688
15
step 16
 O  0.1561897326  0.0027633236 -0.2592358384
 C -1.9892601004  0.0399568471 -1.4027511176
 C  2.3625184872 -0.0030761454  0.7406011931
 C  0.8390068837  0.0247835207  1.0192460951
 C -1.2889777167  0.0809716618 -0.0726777007
 H  2.5698880326  0.8509854444  0.1233146180
 H  2.6252185542 -0.8949472398  0.2047461593
 H  2.9502190456  0.0421089814  1.6469828725
 H  0.4571187529 -0.7824920242  1.6666706522
 H  0.5967581850  0.9901781059  1.5508122144
 H -1.6187334801 -0.7964444801  0.5041695696
 H -1.5805492671  0.9872267587  0.4964939981
 H -1.5993888808  0.8137751030 -2.0539875660
 H -1.8336468385 -0.9031380648 -1.8861054372
 H -3.0606832756  0.1481185812 -1.2521819923
15
step 17
 O  0.1564362039  0.0047879469 -0.2583694024
 C -1.9915840665  0.0451912094 -1.4021091125
 C  2.3632994148 -0.0026212770  0.7410469340
 C  0.8383548359  0.0247700792  1.0213702974
 C -1.2863609416  0.0826990901 -0.0692137425
 H  2.5733555090  0.8548436525  0.1233207755
 H  2.6299722608 -0.8943589041  0.1961273769
 H  2.9535186021  0.0470296083  1.6459328321
 H  0.4668634204 -0.7878177955  1.6660234894
 H  0.6040426127  0.9823509631  1.5482726151
 H -1.6216329559 -0.7927608033  0.5053054470
 H -1.5803107756  0.9839859199  0.4973194296
 H -1.6071676395  0.8213568563 -2.0512013257
 H -1.8344398090 -0.9068612931 -1.8811144046
 H -3.0605007175  0.1688965686 -1.2503806207
15
step 18
 O  0.1566056620  0.0068262030 -0.2574727299
 C -1.9939781372  0.0504441126 -1.4016457120
 C  2.3639032933 -0.0022165714  0.7414880886
 C  0.8375473263  0.0249857308  1.0235098059
 C -1.2835132987  0.0843346447 -0.0654404119
 H  2.5777163989  0.8593079532  0.1228760886
 H  2.6350049504 -0.8944532592  0.1871674874
 H  2.9566767407  0.0520632244  1.6454394089
 H  0.4777451074 -0.7931910738  1.6650410923
 H  0.6116352777  0.9726940477  1.5450746025
 H -1.6244664222 -0.7885453917  0.5069299725
 H -1.5794535275  0.9802012167  0.4976686487
 H -1.6153506013  0.8293061468 -2.0487961305
 H -1.8349622825 -0.9113434831 -1.8766817603
 H -3.0601573612  0.1900116957 -1.2488700959
15
step 19
 O  0.1567052345  0.0088742287 -0.2565350794
 C -1.9964116708  0.0556663823 -1.4013371008
 C  2.3643605479 -0.0018593869  0.7418665408
 C  0.8366560012  0.0253438647  1.0255960868
 C -1.2804761092  0.0858644993 -0.0614302704
 H  2.5827644168  0.8640136095  0.1222540202
 H  2.6401103754 -0.8947063955  0.1783403855
 H  2.9596297629  0.0570700534  1.6454521818
 H  0.4895265629 -0.7986089352  1.6638071697
 H  0.6191465749  0.9622004110  1.5418551733
 H -1.6271707387 -0.7839728377  0.5090885322
 H -1.5780383697  0.9763828601  0.4978697139
 H -1.6236387809  0.8375802438 -2.0469088175
 H -1.8355095972 -0.9157643545 -1.8726125220
 H -3.0597568693  0.2111550498 -1.2475755896
15
step 20
 O  0.1567431848  0.0109278301 -0.2555458677
 C -1.9988530518  0.0608132123 -1.4011588012
 C  2.3647062058 -0.0015421654  0.7421266426
 C  0.8357558185  0.0257458851  1.0275537487
 C -1.2772920304  0.0872747852 -0.0572608053
 H  2.5882772740  0.8685641894  0.1217465563
 H  2.6450783660 -0.8946106902  0.1701167485
 H  2.9622881526  0.0619072631  1.6458788282
 H  0.5019558151 -0.8040801221  1.6624127758
 H  0.6261644117  0.9520073436  1.5393259918
 H -1.6296898395 -0.7792361381  0.5118285705
 H -1.5761442414  0.9730727198  0.4982698336
 H -1.6317444053  0.8461021335 -2.0456409369
 H -1.8363696228 -0.9193267835 -1.8687246473
 H -3.0593994774  0.2320159738 -1.2464171349
15
step 21
 O  0.1567287985  0.0129825856 -0.2544948550
 C -2.0012718796  0.0658517383 -1.4010845357
 C  2.3649766288 -0.0012517949  0.7422211606
 C  0.8349206733  0.0260916160  1.0293075954
 C -1.2740055878  0.0885549594 -0.0530092791
 H  2.5940318655  0.8725816235  0.1216280453
 H  2.6497156471 -0.8937370032  0.1629191226
 H  2.9645430597  0.0664329338  1.6465946677
 H  0.5147757115 -0.8096169275  1.6609470673
 H  0.6322905647  0.9432648993  1.5382003189
 H -1.6319722431 -0.7745305800  0.5151915351
 H -1.5738517373  0.9707839776  0.4991968620
 H -1.6394040632  0.8547519539 -2.0450466570
 H -1.8378043045 -0.9213412843 -1.8648820820
 H -3.0591688420  0.2522899764 -1.2453134092
15
step 22
 O  0.1566722254  0.0150339282 -0.2533723631
 C -2.0036408056  0.0707663049 -1.4010855139
 C  2.3652063338 -0.0009698225  0.7421156966
 C  0.8342187312  0.0262929212  1.0307913926
 C -1.2706638896  0.0897013534 -0.0487475276
 H  2.5998185458  0.8757496903  0.1221242789
 H  2.6538628839 -0.8917806488  0.1570858949
 H  2.9662758685  0.0705101432  1.6474563648
 H  0.5277325992 -0.8152277388  1.6594887023
 H  0.6371820315  0.9369674873  1.5390992620
 H -1.6339680315 -0.7700371142  0.5192047847
 H -1.5712250118  0.9699381437  0.5009197455
 H -1.6463886197  0.8633647409 -2.0451265201
 H -1.8400352632 -0.9212892754 -1.8610164780
 H -3.0591217114  0.2716861830 -1.2441856600
15
step 23
 O  0.1565842833  0.0170771995 -0.2521695297
 C -2.0059368664  0.0755611659 -1.4011299903
 C  2.3654251299 -0.0006732781  0.7417913817
 C  0.8337081316  0.0262880454  1.0319569862
 C -1.2673172413  0.0907202169 -0.0445373932
 H  2.6054534481  0.8778473630  0.1233893060
 H  2.6574071125 -0.8885902832  0.1528458539
 H  2.9673697259  0.0740110688  1.6483181112
 H  0.5405836948 -0.8209107684  1.6580985669
 H  0.6405901065  0.9337785749  1.5424526589
 H -1.6356258642 -0.7659069642  0.5238742959
 H -1.5682954968  0.9708093492  0.5036142244
 H -1.6525091888  0.8717357199 -2.0458279452
 H -1.8432338264 -0.9188638881 -1.8571382945
 H -3.0592820731  0.2899344382 -1.2429613211
15
step 24
 O  0.1564762351  0.0191076846 -0.2508785878
 C -2.0081422294  0.0802607434 -1.4011829573
 C  2.3656557465 -0.0003358640  0.7412459478
 C  0.8334338754  0.0260526116  1.0327815719
 C -1.2640193092  0.0916294998 -0.0404274748
 H  2.6107882168  0.8787707398  0.1254908129
 H  2.6602893689 -0.8841811065  0.1503033830
 H  2.9677216578  0.0768210094  1.6490483719
 H  0.5531030265 -0.8266490882  1.6568142259
 H  0.6423876876  0.9338967047  1.5484200694
 H -1.6368906800 -0.7622492056  0.5291789934
 H -1.5650514136  0.9734866899  0.5073403937
 H -1.6576191763  0.8796329902 -2.0470521599
 H -1.8475153002 -0.9139900886 -1.8533390915
 H -3.0596406584  0.3067923031 -1.2415769094
15
step 25
 O  0.1563595523  0.0211206452 -0.2494931510
 C -2.0102443320  0.0849077365 -1.4012059613
 C  2.3659120926  0.0000706543  0.7404933841
 C  0.8334265123  0.0256033469  1.0332709212
 C -1.2608265237  0.0924588172 -0.0364516613
 H  2.6157168206  0.8785435930  0.1284039389
 H  2.6625075292 -0.8787340805  0.1494337961
 H  2.9672539090  0.0788422185  1.6495453802
 H  0.5650860909 -0.8324069407  1.6556462899
 H  0.6425772547  0.9370091283  1.5568575251
 H -1.6377027330 -0.7591227654  0.5350674302
 H -1.5614361775  0.9778627794  0.5120368647
 H -1.6616130071  0.8868161219 -2.0486661914
 H -1.8529371805 -0.9068261140 -1.8497865516
 H -3.0601597551  0.3220521816 -1.2399799167
15
step 26
 O  0.1562456742  0.0231113733 -0.2480084838
 C -2.0122354461  0.0895593635 -1.4011571742
 C  2.3661982994  0.0005749152  0.7395623529
 C  0.8337027151  0.0249930183  1.0334575488
 C -1.2577965849  0.0932474769 -0.0326295527
 H  2.6201792452  0.8773168770  0.1320131135
 H  2.6641142562 -0.8725819623  0.1500886374
 H  2.9659233304  0.0799974099  1.6497498574
 H  0.5763534539 -0.8381275064  1.6545768395
 H  0.6412780372  0.9423511236  1.5673419074
 H -1.6379984613 -0.7565337590  0.5414573480
 H -1.5573566167  0.9836509626  0.5175326056
 H -1.6644224777  0.8930582463 -2.0505179214
 H -1.8595011742 -0.8977467461 -1.8467128332
 H -3.0607824287  0.3355486343 -1.2381295825
15
step 27
 O  0.1561457692  0.0250752751 -0.2464217357
 C -2.0141117372  0.0942819318 -1.4009919468
 C  2.3665087031  0.0012042655  0.7384934349
 C  0.8342672452  0.0242984568  1.0333945810
 C -1.2549861711  0.0940409572 -0.0289684862
 H  2.6241618362  0.8753572567  0.1361216290
 H  2.6652097395 -0.8661818071  0.1520113276
 H  2.9637279039  0.0802327414  1.6496537601
 H  0.5867534449 -0.8437326823  1.6535601016
 H  0.6386977710  0.9488491755  1.5792438534
 H -1.6377134032 -0.7544383914  0.5482383444
 H -1.5526992944  0.9904269643  0.5235734505
 H -1.6660117119  0.8981688047 -2.0524520565
 H -1.8671590914 -0.8873072059 -1.8443959170
 H -3.0614446127  0.3471656173 -1.2359966062
15
step 28
 O  0.1560704996  0.0270079822 -0.2447321274
 C -2.0158719370  0.0991438885 -1.4006640845
 C  2.3668289155  0.0019828683  0.7373352256
 C  0.8351155237  0.0236057835  1.0331473613
 C -1.2524481582  0.0948865754 -0.0254666151
 H  2.6276939988  0.8730244422  0.1404688047
 H  2.6659288979 -0.8600731723  0.1548636762
 H  2.9607097656  0.0795200363  1.6493041469
 H  0.5961639607 -0.8491255852  1.6525255569
 H  0.6350980740  0.9553000071  1.5918250302
 H -1.6367870035 -0.7527509089  0.5552774862
 H -1.5473512761  0.9976857999  0.5298573936
 H -1.6663715478  0.9020141933 -2.0543250833
 H -1.8758225559 -0.8761859715 -1.8431332352
 H -3.0620881766  0.3568430400 -1.2335620085
15
step 29
 O  0.1560297973  0.0289054734 -0.2429410866
 C -2.0175158008  0.1042076368 -1.4001279853
 C  2.3671380490  0.0029296493  0.7361393780
 C  0.8362361198  0.0229968825  1.0327849680
 C -1.2502287605  0.0958291629 -0.0221164194
 H  2.6308410086  0.8707373927  0.1447543958
 H  2.6664231490 -0.8548223357  0.1582628835
 H  2.9569543471  0.0778579973  1.6488015057
 H  0.6044933257 -0.8541962193  1.6513834677
 H  0.6307615560  0.9605379424  1.6043341227
 H -1.6351687836 -0.7513554394  0.5624273022
 H -1.5412211420  1.0049032050  0.5360720476
 H -1.6655140071  0.9045339329 -2.0560176616
 H -1.8853758650 -0.8651069083 -1.8432075291
 H -3.0626729844  0.3645818111 -1.2308154687
15
step 30
 O  0.1560326552  0.0307641859 -0.2410523381
 C -2.0190426067  0.1095207697 -1.3993415780
 C  2.3674120052  0.0040562603  0.7349549226
 C  0.8376127819  0.0225394803  1.0323730764
 C -1.2483649763  0.0969073853 -0.0189081138
 H  2.6336929953  0.8689306522  0.1486691491
 H  2.6668379096 -0.8509557263  0.1618265163
 H  2.9525855044  0.0752722314  1.6482921400
 H  0.6116801938 -0.8588301472  1.6500324727
 H  0.6259652007  0.9635624551  1.6160849301
 H -1.6328250870 -0.7501201397  0.5695352755
 H -1.5342568200  1.0115924743  0.5419288273
 H -1.6634673801  0.9057505478 -2.0574433117
 H -1.8956902624 -0.8547462474 -1.8448467968
 H -3.0631860787  0.3704465034 -1.2277535271
15
step 31
 O  0.1560869437  0.0325811005 -0.2390719542
 C -2.0204500128  0.1151079137 -1.3982697111
 C  2.3676275071  0.0053654088  0.7338225373
 C  0.8392259491  0.0222812812  1.0319686542
 C -1.2468826077  0.0981510418 -0.0158325960
 H  2.6363508079  0.8680041956  0.1519291088
 H  2.6672885375 -0.8488899649  0.1652199642
 H  2.9477567983  0.0718140301  1.6479545714
 H  0.6176925826 -0.8629193671  1.6483685343
 H  0.6209609538  0.9636196979  1.6265113957
 H -1.6297455200 -0.7489119427  0.5764538012
 H -1.5264582615  1.0173509402  0.5471905452
 H -1.6602724273  0.9057719199 -2.0585525928
 H -1.9066368132 -0.8456370552 -1.8481830903
 H -3.0636464207  0.3745649328 -1.2243780636
15
step 32
 O  0.1561992593  0.0343537969 -0.2370083702
 C -2.0217335862  0.1209648081 -1.3968873868
 C  2.3677663131  0.0068500082  0.7327697491
 C  0.8410538680  0.0222473955  1.0316163241
 C -1.2457949938  0.0995794053 -0.0128837536
 H  2.6389103355  0.8682727168  0.1543097293
 H  2.6678389007 -0.8488698640  0.1681982758
 H  2.9426394476  0.0675580111  1.6479804548
 H  0.6225262337 -0.8663741692  1.6462942880
 H  0.6159622372  0.9602457787  1.6352023331
 H -1.6259482707 -0.7476103453  0.5830496017
 H -1.5178843625  1.0218936773  0.5516911476
 H -1.6559801881  0.9047854978 -2.0593322627
 H -1.9180947417 -0.8380897444 -1.8532176959
 H -3.0641040907  0.3771242560 -1.2206954046
15
step 33
 O  0.1563748089  0.0360804800 -0.2348723659
 C -2.0228871801  0.1270562257 -1.3951821222
 C  2.3678188981  0.0084935361  0.7318081331
 C  0.8430734993  0.0224399152  1.0313459741
 C -1.2451024866  0.1012004919 -0.0100600623
 H  2.6414476549  0.8699223007  0.1556746763
 H  2.6684872914 -0.8509271488  0.1706336843
 H  2.9374079347  0.0625989014  1.6485513079
 H  0.6262025347 -0.8691346195  1.6437278048
 H  0.6111343925  0.9532839334  1.6419216708
 H -1.6214836645 -0.7461190033  0.5892117589
 H -1.5086544245  1.0250742826  0.5553476451
 H -1.6506518151  0.9030444357 -2.0597992509
 H -1.9299531333 -0.8321476950 -1.8598011686
 H -3.0646335377  0.3783635925 -1.2167162792
15
step 34
 O  0.1566173300  0.0377599916 -0.2326770010
 C -2.0239040989  0.1333186431 -1.3931548814
 C  2.3677869138  0.0102717105  0.7309332760
 C  0.8452613724  0.0228386898  1.0311712396
 C -1.2447926425  0.1030111120 -0.0073654671
 H  2.6440076954  0.8729826741  0.1559941098
 H  2.6691633080 -0.8548697651  0.1725226286
 H  2.9322247504  0.0570478572  1.6498133569
 H  0.6287662083 -0.8711804090  1.6406099001
 H  0.6065873677  0.9428856147  1.6466194021
 H -1.6164355239 -0.7443742741  0.5948577410
 H -1.4989447784  1.0268934740  0.5581647826
 H -1.6443606296  0.9008466231 -2.0599897698
 H -1.9421061537 -0.8275898136 -1.8676344514
 H -3.0653213564  0.3785636244 -1.2124566279
15
step 35
 O  0.1569290431  0.0393918193 -0.2304374915
 C -2.0247787307  0.1396673697 -1.3908194026
 C  2.3676839723  0.0121551915  0.7301276316
 C  0.8475944626  0.0234028080  1.0310887016
 C -1.2448410769  0.1049976027 -0.0048095372
 H  2.6465986399  0.8773209925  0.1553487025
 H  2.6697367284 -0.8603047228  0.1739711717
 H  2.9272262155  0.0510287570  1.6518537951
 H  0.6302828957 -0.8725380131  1.6369093556
 H  0.6023698879  0.9295003373  1.6494357465
 H -1.6109201130 -0.7423501837  0.5999370146
 H -1.4889811714  1.0274960675  0.5602328426
 H -1.6371961959  0.8985086209 -2.0599445990
 H -1.9544443458 -0.8239789870 -1.8762922139
 H -3.0662501028  0.3780340426 -1.2079390164
15
step 36
 O  0.1573106303  0.0409761142 -0.2281710104
 C -2.0255081922  0.1460066777 -1.3882001702
 C  2.3675346654  0.0141127011  0.7293656326
 C  0.8500510441  0.0240728108  1.0310779264
 C -1.2452129273  0.1071372288 -0.0024068717
 H  2.6491930552  0.8826587245  0.1539184472
 H  2.6700363319 -0.8666891784  0.1751632848
 H  2.9225115132  0.0446748101  1.6546823168
 H  0.6308366685 -0.8732843249  1.6326256738
 H  0.5984656744  0.9138532614  1.6506974595
 H -1.6050826467 -0.7400595706  0.6044320099
 H -1.4790273924  1.0271562540  0.5617185586
 H -1.6292696597  0.8963375881 -2.0596924389
 H -1.9668457921 -0.8207429174 -1.8852637891
 H -3.0674806133  0.3771000146 -1.2031941798
15
step 37
 O  0.1577612311  0.0425137217 -0.2258964021
 C -2.0260935597  0.1522408614 -1.3853295418
 C  2.3673720814  0.0161138847  0.7286198699
 C  0.8526113215  0.0247741028  1.0311027630
 C -1.2458648483  0.1094002969 -0.0001757282
 H  2.6517351905  0.8886081559  0.1519585166
 H  2.6698744428 -0.8733984611  0.1763200559
 H  2.9181368060  0.0381256295  1.6582215334
 H  0.6305274552 -0.8735461444  1.6277892252
 H  0.5947938342  0.8969044618  1.6509016511
 H -1.5990915448 -0.7375513829  0.6083563532
 H -1.4693706417  1.0262506910  0.5628488421
 H -1.6207190491  0.8946049950 -2.0592340141
 H -1.9791704406 -0.8172675489 -1.8940033398
 H -3.0690358938  0.3760889484 -1.1982621129
15
step 38
 O  0.1582784459  0.0440062252 -0.2236338139
 C -2.0265404298  0.1582842739 -1.3822445458
 C  2.3672343250  0.0181314366  0.7278670150
 C  0.8552574979  0.0254222726  1.0311145107
 C -1.2467474289  0.1117530077  0.0018641166
 H  2.6541525955  0.8947212623  0.1497668766
 H  2.6690724385 -0.8797981049  0.1776583253
 H  2.9141155438  0.0315246782  1.6623086224
 H  0.6294683773 -0.8734951316  1.6224588643
 H  0.5912169739  0.8797811594  1.6506799508
 H -1.5931308172 -0.7349043439  0.6117504426
 H -1.4603044156  1.0252193632  0.5638872456
 H -1.6117128848  0.8935259264 -2.0585299629
 H -1.9912592347 -0.8129848213 -1.9019804488
 H -3.0708896265  0.3753186657 -1.1931921676
15
step 39
 O  0.1588583407  0.0454559914 -0.2214042601
 C -2.0268587627  0.1640690319 -1.3789837037
 C  2.3671606096  0.0201423335  0.7270924411
 C  0.8579728772  0.0259309029  1.0310575299
 C -1.2478078634  0.1141609520  0.0036941684
 H  2.6563696245  0.9005423850  0.1476492537
 H  2.6674833951 -0.8853092879  0.1793551515
 H  2.9104249330  0.0250168195  1.6667085431
 H  0.6277830572 -0.8733381081  1.6167172614
 H  0.5875610978  0.8636759708  1.6507361241
 H -1.5873911436 -0.7322174671  0.6146746406
 H -1.4521101556  1.0245158184  0.5651040420
 H -1.6024504917  0.8932468776 -2.0574951980
 H -2.0029379168 -0.8074430273 -1.9087245239
 H -3.0729616015  0.3750877161 -1.1880418264
15
step 40
 O  0.1594954507  0.0468662085 -0.2192291462
 C -2.0270621210  0.1695498607 -1.3755840447
 C  2.3671874397  0.0221282943  0.7262930044
 C  0.8607397340  0.0262217699  1.0308774058
 C -1.2489926592  0.1165929487  0.0053004223
 H  2.6583205468  0.9056572430  0.1458864072
 H  2.6650096256 -0.8894613191  0.1815214457
 H  2.9070173944  0.0187456531  1.6711369971
 H  0.6256030514 -0.8733029449  1.6106643500
 H  0.5836496523  0.8497126281  1.6517554885
 H -1.5820603516 -0.7295982139  0.6172005988
 H -1.4450394080  1.0245511219  0.5667424298
 H -1.5931579261  0.8938433079 -2.0560012993
 H -2.0140242636 -0.8003553842 -1.9138595610
 H -3.0751210834  0.3756680749 -1.1828741272
15
step 41
 O  0.1601827891  0.0482409039 -0.2171297828
 C -2.0271665025  0.1747061880 -1.3720783822
 C  2.3673452640  0.0240757093  0.7254779513
 C  0.8635361096  0.0262361061  1.0305308126
 C -1.2502501359  0.1190246861  0.0066765581
 H  2.6599606007  0.9097332932  0.1447070930
 H  2.6616143038 -0.8919288251  0.1841855064
 H  2.9038350301  0.0128504079  1.6752897022
 H  0.6230656207 -0.8736207285  1.6044094201
 H  0.5793492213  0.8387955206  1.6542955784
 H -1.5773140429 -0.7271493962  0.6194014884
 H -1.4392984877  1.0256389220  0.5689852410
 H -1.5840792995  0.8953263149 -2.0538869068
 H -2.0243371886 -0.7916275955 -1.9171284037
 H -3.0771976160  0.3773000113 -1.1777540194
15
step 42
 O  0.1609118758  0.0495849345 -0.2151269137
 C -2.0271889801  0.1795419404 -1.3684929274
 C  2.3676558393  0.0259752753  0.7246682519
 C  0.8663323272  0.0259443009  1.0299950441
 C -1.2515325046  0.1214414956  0.0078265903
 H  2.6612740543  0.9125490564  0.1442684060
 H  2.6573272422 -0.8925538079  0.1872857147
 H  2.9008248651  0.0074623267  1.6788738980
 H  0.6203120101 -0.8745054720  1.5980625216
 H  0.5746172760  0.8314753312  1.6586811960
 H -1.5733070759 -0.7249561882  0.6213421341
 H -1.4350374291  1.0279509884  0.5719278061
 H -1.5754642165  0.8976562324 -2.0509745192
 H -2.0337063639 -0.7813673056 -1.9184069855
 H -3.0789974935  0.3801886288 -1.1727441454
15
step 43
 O  0.1616728035  0.0509039458 -0.2132402728
 C -2.0271463364  0.1840835642 -1.3648453799
 C  2.3681304248  0.0278214790  0.7238947763
 C  0.8690885199  0.0253509509  1.0292745041
 C -1.2527973868  0.1238396436  0.0087664595
 H  2.6622788806  0.9140118921  0.1446439307
 H  2.6522451808 -0.8913535672  0.1906713007
 H  2.8979528742  0.0027006474  1.6816382905
 H  0.6174862536 -0.8761332988  1.5917259731
 H  0.5695369834  0.8278691212  1.6649347757
 H -1.5701664929 -0.7230747494  0.6230701833