15
step 0
 O  0.1408555986 -0.0268892119 -0.2754716561
 C -1.9654253122 -0.0497364008 -1.4558558650
 C  2.3319082836 -0.0205297002  0.7391683725
 C  0.8126716241  0.0511091982  0.9906536995
 C -1.2795082561  0.0368875795 -0.0780056745
 H  2.6482497988  0.8021230957  0.1054419087
 H  2.5890812540 -0.9535795951  0.2475234661
 H  2.8694754430  0.0375565754  1.6808370845
 H  0.5063553438 -0.7728217914  1.6474272006
 H  0.5661642080  0.9872781096  1.5072482596
 H -1.6231863819 -0.7873006395  0.5596796116
 H -1.5636468129  0.9727981927  0.4193719336
 H -1.6465108859  0.7730951914 -2.0880589748
 H -1.7075461734 -0.9826567470 -1.9473778771
 H -3.0440377332 -0.0029338565 -1.3396814859
15
step 1
 O  0.1422700823 -0.0251275374 -0.2742257774
 C -1.9666383557 -0.0426921096 -1.4502899142
 C  2.3340351638 -0.0187485806  0.7395814228
 C  0.8155178525  0.0498189825  0.9931093718
 C -1.2826119538  0.0407944016 -0.0791479100
 H  2.6398003945  0.8115854396  0.1022650903
 H  2.5923401179 -0.9573914081  0.2445014193
 H  2.8763109484  0.0340847566  1.6801270023
 H  0.4954884345 -0.7672225451  1.6479365576
 H  0.5686442483  0.9730071641  1.5038277707
 H -1.6191054961 -0.7883253547  0.5519716539
 H -1.5621139635  0.9685954780  0.4222726027
 H -1.6358568302  0.7703570262 -2.0859916109
 H -1.7190285903 -0.9817266356 -1.9512642859
 H -3.0441520542 -0.0026090771 -1.3317733897
15
step 2
 O  0.1436652607 -0.0233690560 -0.2729939226
 C -1.9678401424 -0.0357707639 -1.4448250734
 C  2.3361694661 -0.0170101696  0.7399535940
 C  0.8183373882  0.0484549312  0.9954887851
 C -1.2856101842  0.0446291220 -0.0802688208
 H  2.6313903766  0.8205412779  0.0994415760
 H  2.5954341918 -0.9605088264  0.2417142427
 H  2.8830521294  0.0307550512  1.6793184257
 H  0.4848694093 -0.7619721073  1.6485617999
 H  0.5708771624  0.9601590625  1.5010937107
 H -1.6152232244 -0.7894410768  0.5444929554
 H -1.5608073574  0.9649605921  0.4254345928
 H -1.6254629052  0.7679223922 -2.0840046637
 H -1.7304693872 -0.9802015642 -1.9546130631
 H -3.0443818839 -0.0019593469 -1.3239641438
15
step 3
 O  0.1450286517 -0.0216094558 -0.2717844153
 C -1.9690287896 -0.0290525133 -1.4395363571
 C  2.3383238928 -0.0153447467  0.7402517611
 C  0.8211153750  0.0469425728  0.9977322287
 C -1.2884159985  0.0483403661 -0.0813482927
 H  2.6230433658  0.8285730594  0.0972729824
 H  2.5982367879 -0.9623525652  0.2393419364
 H  2.8896362423  0.0276903934  1.6783178825
 H  0.4746961752 -0.7573636338  1.6493983187
 H  0.5726421110  0.9500012785  1.4996685811
 H -1.6117027812 -0.7907249092  0.5374205780
 H -1.5599232759  0.9623811198  0.4291073437
 H -1.6155404533  0.7660437194 -2.0821483447
 H -1.7418441166 -0.9775781496 -1.9569572234
 H -3.0448288529 -0.0006740466 -1.3163177371
15
step 4
 O  0.1463487275 -0.0198445289 -0.2706047178
 C -1.9702077072 -0.0225979910 -1.4344930077
 C  2.3405051638 -0.0137762803  0.7404525894
 C  0.8238328977  0.0452267255  0.9997951712
 C -1.2909512535  0.0518853593 -0.0823596355
 H  2.6148116610  0.8353507594  0.0959940731
 H  2.6006605146 -0.9624938189  0.2374975662
 H  2.8960051006  0.0250052729  1.6770460016
 H  0.4651638831 -0.7536386792  1.6505089788
 H  0.5737816405  0.9435167093  1.5000259018
 H -1.6086815660 -0.7922211765  0.5309012879
 H -1.5596128220  0.9612165326  0.4334786449
 H -1.6062982679  0.7649173966 -2.0804424221
 H -1.7530910171 -0.9735048543 -1.9579235915
 H -3.0455649220  0.0015330045 -1.3088958494
15
step 5
 O  0.1476150114 -0.0180702575 -0.2694610229
 C -1.9713858216 -0.0164442841 -1.4297557492
 C  2.3427127143 -0.0123217209  0.7405447964
 C  0.8264635269  0.0432844571  1.0016561229
 C -1.2931494400  0.0552337443 -0.0832674701
 H  2.6067789494  0.8406594836  0.0957524463
 H  2.6026665150 -0.9606868738  0.2362122491
 H  2.9021085105  0.0228026528  1.6754443145
 H  0.4564650705 -0.7509733463  1.6519177593
 H  0.5742456648  0.9412355493  1.5024015687
 H -1.6062650231 -0.7939317041  0.5250440534
 H -1.5599652867  0.9616471096  0.4386427317
 H -1.5979412453  0.7646749604 -2.0788715992
 H -1.7641119410 -0.9678167093 -1.9572599350
 H -3.0466234275  0.0049165770 -1.3017569117
15
step 6
 O  0.1488181384 -0.0162829118 -0.2683579228
 C -1.9725771423 -0.0106033801 -1.4253744617
 C  2.3449381031 -0.0109908305  0.7405301114
 C  0.8289715430  0.0411323326  1.0033207050
 C -1.2949575198  0.0583696672 -0.0840270596
 H  2.5990589297  0.8444157366  0.0965970946
 H  2.6042687028 -0.9568843458  0.2354286168
 H  2.9079073711  0.0211712712  1.6734808833
 H  0.4487885849 -0.7494707932  1.6536078791
 H  0.5741165167  0.9431413858  1.5067453241
 H -1.6045233528 -0.7958115046  0.5199167529
 H -1.5609994125  0.9636484002  0.4445812042
 H -1.5906665628  0.7653825570 -2.0773870475
 H -1.7747778991 -0.9605508466 -1.9548508474
 H -3.0479955213  0.0096942276 -1.2949550659
15
step 7
 O  0.1499499004 -0.0144791487 -0.2672981686
 C -1.9737998334 -0.0050627127 -1.4213862272
 C  2.3471650361 -0.0097864016  0.7404230815
 C  0.8313128681  0.0388251317  1.0048203687
 C -1.2963366966  0.0612916891 -0.0845854687
 H  2.5917905683  0.8466726887  0.0984756149
 H  2.6055333463 -0.9512367881  0.2350020172
 H  2.9133761743  0.0201832949  1.6711542653
 H  0.4423167206 -0.7491605496  1.6555243938
 H  0.5736041195  0.9486851509  1.5127309404
 H -1.6034909628 -0.7977704767  0.5155471377
 H -1.5626639328  0.9669972790  0.4511616409
 H -1.5846571376  0.7670475325 -2.0759137791
 H -1.7849377004 -0.9519454090 -1.9507231932
 H -3.0496320624  0.0160413734 -1.2885390585
15
step 8
 O  0.1510032907 -0.0126560973 -0.2662825259
 C -1.9750749154  0.0002125137 -1.4178138522
 C  2.3493699752 -0.0087048245  0.7402497927
 C  0.8334386963  0.0364465377  1.0062061300
 C -1.2972622213  0.0640106520 -0.0848845192
 H  2.5851306289  0.8476146584  0.1012398304
 H  2.6065741843 -0.9440772309  0.2347092915
 H  2.9185046554  0.0198923041  1.6684953988
 H  0.4372203229 -0.7500043817  1.6575807878
 H  0.5730119147  0.9569005839  1.5198215941
 H -1.6031682916 -0.7996808490  0.5119275537
 H -1.5648467372  0.9713079987  0.4581544969
 H -1.5800728223  0.7696301126 -2.0743625022
 H -1.7944287731 -0.9424228286 -1.9450412547
 H -3.0514503158  0.0240870633 -1.2825511132
15
step 9
 O  0.1519725512 -0.0108114272 -0.2653097329
 C -1.9764246833  0.0052753775 -1.4146651419
 C  2.3515233700 -0.0077370616  0.7400454792
 C  0.8353007779  0.0340952766  1.0075394150
 C -1.2977224552  0.0665461389 -0.0848650800
 H  2.5792440113  0.8475406163  0.1046597633
 H  2.6075430410 -0.9358899515  0.2342656008
 H  2.9232983596  0.0203316372  1.6655670924
 H  0.4336520743 -0.7519077484  1.6596686823
 H  0.5726854871  0.9665790875  1.5273669650
 H -1.6035255062 -0.8013893082  0.5090225309
 H -1.5673902817  0.9760896560  0.4652643955
 H -1.5770403797  0.7730578220 -2.0726439606
 H -1.8030897346 -0.9325565242 -1.9380907696
 H -3.0533443153  0.0339104843 -1.2770258329
15
step 10
 O  0.1528532163 -0.0089433989 -0.2643765604
 C -1.9778709128  0.0101916860 -1.4119332848
 C  2.3535915625 -0.0068701159  0.7398509557
 C  0.8368569063  0.0318710139  1.0088826182
 C -1.2977174581  0.0689223983 -0.0844719573
 H  2.5742924282  0.8468364034  0.1084458550
 H  2.6086158802 -0.9272625360  0.2333499379
 H  2.9277779039  0.0215131720  1.6624609391
 H  0.4317386446 -0.7547352396  1.6616694493
 H  0.5729597179  0.9764514896  1.5347028567
 H -1.6045075344 -0.8027321764  0.5067781371
 H -1.5701100537  0.9808129326  0.4721690886
 H -1.5756435904  0.7772404747 -2.0706835622
 H -1.8107744337 -0.9230191082 -1.9302506921
 H -3.0551974810  0.0455384486 -1.2719891624
15
step 11
 O  0.1536421439 -0.0070509008 -0.2634779672
 C -1.9794329391  0.0150328625 -1.4095986181
 C  2.3555393579 -0.0060890041  0.7397079065
 C  0.8380754628  0.0298630579  1.0102912667
 C -1.2972573407  0.0711645148 -0.0836586259
 H  2.5704220619  0.8459360608  0.1122787447
 H  2.6099746009 -0.9188219375  0.2316392185
 H  2.9319767559  0.0234266435  1.6592916562
 H  0.4315727078 -0.7583279218  1.6634663498
 H  0.5741162258  0.9853387341  1.5412324134
 H -1.6060398922 -0.8035517389  0.5051319378
 H -1.5728131189  0.9849746100  0.4785590063
 H -1.5759148345  0.7820840011 -2.0684343075
 H -1.8173669883 -0.9145114144 -1.9219525148
 H -3.0568960061  0.0589442019 -1.2674574184
15
step 12
 O  0.1543375282 -0.0051334763 -0.2626073291
 C -1.9811257309  0.0198676168 -1.4076317624
 C  2.3573331263 -0.0053790592  0.7396533151
 C  0.8389384940  0.0281429199  1.0118085368
 C -1.2963605614  0.0732953145 -0.0823912116
 H  2.5677510589  0.8452743864  0.1158446769
 H  2.6117857435 -0.9111589926  0.2288489935
 H  2.9359374453  0.0260395814  1.6561890390
 H  0.4332058989 -0.7625204264  1.6649558428
 H  0.5763555934  0.9922570000  1.5464812814
 H -1.6080347900 -0.8037118867  0.5040224919
 H -1.5753146570  0.9881518596  0.4841719340
 H -1.5778292356  0.7875018477 -2.0658864552
 H -1.8227968112 -0.9076757646 -1.9136297221
 H -3.0583416016  0.0740478566 -1.2634363686
15
step 13
 O  0.1549388943 -0.0031913447 -0.2617567107
 C -1.9829581424  0.0247532718 -1.4059976915
 C  2.3589441314 -0.0047281589  0.7397136834
 C  0.8394433215  0.0267602636  1.0134619740
 C -1.2950522827  0.0753331719 -0.0806513955
 H  2.5663579735  0.8452353325  0.1188729236
 H  2.6141785159 -0.9047509003  0.2247761302
 H  2.9397062654  0.0292979050  1.6532879144
 H  0.4366436188 -0.7671559148  1.6660569374
 H  0.5797831360  0.9964808969  1.5501292092
 H -1.6103970553 -0.8031115435  0.5033974962
 H -1.5774514180  0.9900425194  0.4888197376
 H -1.5813020971  0.7934230430 -2.0630728644
 H -1.8270519222 -0.9030034098 -1.9056639339
 H -3.0594623280  0.0907186114 -1.2599203551
15
step 14
 O  0.1554470818 -0.0012254136 -0.2609171490
 C -1.9849315684  0.0297281821 -1.4046599104
 C  2.3603516369 -0.0041283097  0.7399000303
 C  0.8396029516  0.0257411331  1.0152618653
 C -1.2933628604  0.0772906642 -0.0784381381
 H  2.5662724651  0.8461033599  0.1211700226
 H  2.6172256760 -0.8998953829  0.2193362424
 H  2.9433267257  0.0331271604  1.6507166905
 H  0.4418422982 -0.7720976232  1.6667178005
 H  0.5844044490  0.9975764418  1.5520249471
 H -1.6130294872 -0.8016947776  0.5032199332
 H -1.5790918179  0.9904908032  0.4924061091
 H -1.5861900181  0.7997962581 -2.0600694102
 H -1.8301882679 -0.9007526481 -1.8983378487
 H -3.0602204195  0.1087787350 -1.2568915149
15
step 15
 O  0.1558642249  0.0007627210 -0.2600789189
 C -1.9870392408  0.0348069241 -1.4035837807
 C  2.3615452836 -0.0035760711  0.7402047874
 C  0.8394455936  0.0250873978  1.0172007028
 C -1.2913265121  0.0791739293 -0.0757682546
 H  2.5674695612  0.8480261709  0.1226449432
 H  2.6209311368 -0.8966708718  0.2125876772
 H  2.9468322577  0.0374343415  1.6485853527
 H  0.4487094109 -0.7772363116  1.6669191941
 H  0.5901270520  0.9954155115  1.5521911214
 H -1.6158373449 -0.7994569181  0.5034718187
 H -1.5801427626  0.9894994661  0.4949354690
 H -1.5922957981  0.8065893828 -2.0569902821
 H -1.8323327335 -0.9008967897 -1.8918058309
 H -3.0606162173  0.1280091220 -1.2543192377
15
step 16
 O  0.1561937363  0.0027707960 -0.2592317675
 C -1.9892663335  0.0399795537 -1.4027382945
 C  2.3625263182 -0.0030716089  0.7406014601
 C  0.8390135119  0.0247767706  1.0192533879
 C -1.2889802004  0.0809826225 -0.0726759043
 H  2.5698685253  0.8509962908  0.1233201875
 H  2.6252271765 -0.8949323714  0.2047356663
 H  2.9502389514  0.0421102192  1.6469740544
 H  0.4571062550 -0.7824934884  1.6666746321
 H  0.5967658796  0.9901790274  1.5508231698
 H -1.6187317634 -0.7964463320  0.5041553731
 H -1.5805532768  0.9872295267  0.4965134404
 H -1.5993769905  0.8137844456 -2.0539783831
 H -1.8336783394 -0.9031166189 -1.8860893105
 H -3.0606876189  0.1481561242 -1.2521600732
15
step 17
 O  0.1564402930  0.0047959298 -0.2583651125
 C -1.9915909148  0.0452152512 -1.4020961640
 C  2.3633074670 -0.0026166320  0.7410473135
 C  0.8383613070  0.0247633295  1.0213781136
 C -1.2863627756  0.0827104544 -0.0692110234
 H  2.5733367962  0.8548554814  0.1233264068
 H  2.6299819896 -0.8943437629  0.1961146997
 H  2.9535393306  0.0470321089  1.6459237167
 H  0.4668532903 -0.7878206987  1.6660274133
 H  0.6040521556  0.9823499245  1.5482829474
 H -1.6216319577 -0.7927617623  0.5052916306
 H -1.5803147509  0.9839878726  0.4973390286
 H -1.6071576776  0.8213682294 -2.0511915465
 H -1.8344716889 -0.9068407349 -1.8810970778
 H -3.0605048872  0.1689392997 -1.2503583259
15
step 18
 O  0.1566098170  0.0068346996 -0.2574682125
 C -1.9939856216  0.0504694968 -1.4016326696
 C  2.3639115204 -0.0022118377  0.7414885843
 C  0.8375536051  0.0249790450  1.0235181431
 C -1.2835144250  0.0843463866 -0.0654367010
 H  2.5776987039  0.8593209872  0.1228816311
 H  2.6350158543 -0.8944380034  0.1871525308
 H  2.9566982743  0.0520670203  1.6454301391
 H  0.4777376091 -0.7931954878  1.6650449298
 H  0.6116467400  0.9726905842  1.5450841470
 H -1.6244661410 -0.7885453483  0.5069166832
 H -1.5794573255  0.9802022418  0.4976882965
 H -1.6153426689  0.8293196844 -2.0487858943
 H -1.8349944860 -0.9113240514 -1.8766634132
 H -3.0601612476  0.1900597030 -1.2488475223
15
step 19
 O  0.1567094372  0.0088832412 -0.2565303228
 C -1.9964198053  0.0556931027 -1.4013239889
 C  2.3643689101 -0.0018545829  0.7418671408
 C  0.8366620697  0.0253372861  1.0256049272
 C -1.2804764802  0.0858765903 -0.0614255188
 H  2.5827479207  0.8640279696  0.1222593942
 H  2.6401224715 -0.8946910566  0.1783231823
 H  2.9596520680  0.0570751426  1.6454428881
 H  0.4895219062 -0.7986149194  1.6638109011
 H  0.6191599371  0.9621942856  1.5418639123
 H -1.6271711553 -0.7839717224  0.5090759206
 H -1.5780418615  0.9763829644  0.4978893921
 H -1.6236329099  0.8375960571 -2.0468982908
 H -1.8355421263 -0.9157460655 -1.8725932794
 H -3.0597603840  0.2112083441 -1.2475528148
15
step 20
 O  0.1567474184  0.0109373597 -0.2555408576
 C -1.9988618424  0.0608412511 -1.4011456382
 C  2.3647146713 -0.0015373058  0.7421273204
 C  0.8357616763  0.0257394307  1.0275630570
 C -1.2772916094  0.0872871940 -0.0572549851
 H  2.5882621116  0.8685798834  0.1217517590
 H  2.6450916200 -0.8945951821  0.1700974563
 H  2.9623111716  0.0619136077  1.6458696173
 H  0.5019541554 -0.8040877189  1.6624163879
 H  0.6261795569  0.9519986032  1.5393340845
 H -1.6296909184 -0.7792339244  0.5118167893
 H -1.5761473172  0.9730720378  0.4982896189
 H -1.6317405628  0.8461202993 -2.0456303013
 H -1.8364025344 -0.9193094379 -1.8687045842
 H -3.0594025574  0.2320744890 -1.2463942139
15
step 21
 O  0.1567330479  0.0129926325 -0.2544895741
 C -2.0012813241  0.0658810693 -1.4010713338
 C  2.3649851745 -0.0012468890  0.7422218772
 C  0.8349263371  0.0260852743  1.0293173182
 C -1.2740043494  0.0885676525 -0.0530023831
 H  2.5940181226  0.8725985478  0.1216331473
 H  2.6497299781 -0.8937211459  0.1628980095
 H  2.9645667050  0.0664404604  1.6465856150
 H  0.5147771513 -0.8096261570  1.6609505478
 H  0.6323072797  0.9432539014  1.5382081155
 H -1.6319739324 -0.7745272830  0.5151807363
 H -1.5738543075  0.9707827659  0.4992169206
 H -1.6394021589  0.8547725011 -2.0450360944
 H -1.8378377059 -0.9213244967 -1.8648612355
 H -3.0591714514  0.2523535706 -1.2452903719
15
step 22
 O  0.1566764776  0.0150444913 -0.2533667916
 C -2.0036508940  0.0707968979 -1.4010722796
 C  2.3652149448 -0.0009648727  0.7421164036
 C  0.8342242335  0.0262866531  1.0308014597
 C -1.2706618200  0.0897142968 -0.0487395668
 H  2.5998062603  0.8757676452  0.1221294124
 H  2.6538781730 -0.8917641989  0.1570633160
 H  2.9663000193  0.0705187437  1.6474475096
 H  0.5277371905 -0.8152385942  1.6594920352
 H  0.6372000193  0.9369548745  1.5391072894
 H -1.6339702637 -0.7700327867  0.5191951155
 H -1.5712270023  0.9699367586  0.5009403154
 H -1.6463885143  0.8633876384 -2.0451161982
 H -1.8400693055 -0.9212725174 -1.8609948625
 H -3.0591238403  0.2717546417 -1.2441625107
15
step 23
 O  0.1565885276  0.0170882767 -0.2521636455
 C -2.0059475810  0.0755929916 -1.4011167242
 C  2.3654337993 -0.0006682788  0.7417920254
 C  0.8337135179  0.0262817919  1.0319673160
 C -1.2673143394  0.0907333784 -0.0445283937
 H  2.6054426126  0.8778660755  0.1233946481
 H  2.6574232141 -0.8885729681  0.1528222231
 H  2.9673942286  0.0740206020  1.6483094570
 H  0.5405914415 -0.8209232130  1.6581017275
 H  0.6406090100  0.9337651864  1.5424615706
 H -1.6356285556 -0.7659016893  0.5238658940
 H -1.5682968396  0.9708082082  0.5036355871
 H -1.6525107035  0.8717608677 -2.0458180050
 H -1.8432686974 -0.9188465398 -1.8571159185
 H -3.0592837343  0.2900074789 -1.2429380388
15
step 24
 O  0.1564804632  0.0191192723 -0.2508723665
 C -2.0081535457  0.0802937777 -1.4011696538
 C  2.3656644732 -0.0003308017  0.7412464729
 C  0.8334392010  0.0260463050  1.0327920784
 C -1.2640155874  0.0916428525 -0.0404174734
 H  2.6107787834  0.8787898925  0.1254965664
 H  2.6603061232 -0.8841626586  0.1502791412
 H  2.9677463299  0.0768313040  1.6490398897
 H  0.5531138870 -0.8266630562  1.6568171782
 H  0.6424071223  0.9338834342  1.5484305636
 H -1.6368937304 -0.7622430873  0.5291719819
 H -1.5650520333  0.9734862233  0.5073628387
 H -1.6576221013  0.8796602160 -2.0470427067
 H -1.8475512169 -0.9139714933 -1.8533159725
 H -3.0596418832  0.3068695815 -1.2415534493
15
step 25
 O  0.1563637586  0.0211327390 -0.2494865669
 C -2.0102562200  0.0849419650 -1.4011926085
 C  2.3659208803  0.0000758013  0.7404937378
 C  0.8334318389  0.0255969250  1.0332815223
 C -1.2608220087  0.0924723426 -0.0364407015
 H  2.6157087076  0.8785628558  0.1284103104
 H  2.6625247757 -0.8787142707  0.1494093790
 H  2.9672785460  0.0788530769  1.6495370168
 H  0.5650999800 -0.8324223390  1.6556489851
 H  0.6425968413  0.9369967633  1.5568702491
 H -1.6377060249 -0.7591159174  0.5350619128
 H -1.5614359781  0.9778633800  0.5120606533
 H -1.6616171087  0.8868451839 -2.0486572904
 H -1.8529743809 -0.9068056341 -1.8497627311
 H -3.0601605884  0.3221332995 -1.2399562132
15
step 26
 O  0.1562498561  0.0231239672 -0.2480015099
 C -2.0122478708  0.0895947846 -1.4011437529
 C  2.3662071536  0.0005801763  0.7395624884
 C  0.8337081080  0.0249864354  1.0334681738
 C -1.2577913184  0.0932611672 -0.0326176805
 H  2.6201723457  0.8773359405  0.1320202923
 H  2.6641318476 -0.8725606323  0.1500644425
 H  2.9659477154  0.0800086126  1.6497415453
 H  0.5763702445 -0.8381442194  1.6545792168
 H  0.6412974293  0.9423402130  1.5673573723
 H -1.6380018600 -0.7565262942  0.5414534042
 H -1.5573554717  0.9836529417  0.5175579402
 H -1.6644275053  0.8930888421 -2.0505095973
 H -1.8595399098 -0.8977238191 -1.8466883904
 H -3.0607829251  0.3356331493 -1.2381055525
15
step 27
 O  0.1561499267  0.0250883620 -0.2464143445
 C -2.0141246598  0.0943185593 -1.4009784296
 C  2.3665176288  0.0012096768  0.7384933149
 C  0.8342727712  0.0242916905  1.0334051756
 C -1.2549802089  0.0940548171 -0.0289557468
 H  2.6241560275  0.8753758650  0.1361297669
 H  2.6652275545 -0.8661588978  0.1519876847
 H  2.9637518184  0.0802440532  1.6496454300
 H  0.5867729703 -0.8437505776  1.6535620897
 H  0.6387166721  0.9488399555  1.5792623792
 H -1.6377167572 -0.7544304124  0.5482360263
 H -1.5526970428  0.9904305222  0.5236004535
 H -1.6660174027  0.8982005865 -2.0524442974
 H -1.8671996190 -0.8872813968 -1.8443709812
 H -3.0614448337  0.3472530553 -1.2359721521
15
step 28
 O  0.1560746356  0.0270215537 -0.2447242911
 C -2.0158853158  0.0991817527 -1.4006504344
 C  2.3668379147  0.0019884718  0.7373348248
 C  0.8351212498  0.0235988360  1.0331578886
 C -1.2524415694  0.0949006216 -0.0254530514
 H  2.6276891535  0.8730424230  0.1404779977
 H  2.6659468520 -0.8600487464  0.1548408223
 H  2.9607330015  0.0795312120  1.6492957407
 H  0.5961860173 -0.8491445195  1.6525270768
 H  0.6351162447  0.9552923918  1.5918467273
 H -1.6367901470 -0.7527425009  0.5552768158
 H -1.5473477257  0.9976910129  0.5298860990
 H -1.6663776311  0.9020467867 -2.0543178476
 H -1.8758651304 -0.8761570164 -1.8431079955
 H -3.0620881891  0.3569329094 -1.2335370226
15
step 29
 O  0.1560339172  0.0289195201 -0.2429327784
 C -2.0175295918  0.1042467838 -1.4001141557
 C  2.3671471187  0.0029354912  0.7361386849
 C  0.8362421125  0.0229897779  1.0327954081
 C -1.2502216255  0.0958434235 -0.0221020710
 H  2.6308370050  0.8707546816  0.1447646696
 H  2.6664412013 -0.8547965904  0.1582409470
 H  2.9569767175  0.0778687888  1.6487929889
 H  0.6045176761 -0.8542160443  1.6513844355
 H  0.6307788144  0.9605315635  1.6043589023
 H -1.6351715399 -0.7513466653  0.5624282714
 H -1.5412160782  1.0049100290  0.5361024029
 H -1.6655202075  0.9045669592 -2.0560108861
 H -1.8854207332 -0.8650747421 -1.8431822384
 H -3.0626728611  0.3646736192 -1.2307898359
15
step 30
 O  0.1560367669  0.0307786972 -0.2410435321
 C -2.0190567641  0.1095612590 -1.3993275118
 C  2.3674211356  0.0040623888  0.7349539395
 C  0.8376191061  0.0225322591  1.0323834235
 C -1.2483573839  0.0969218975 -0.0188930168
 H  2.6336897277  0.8689473074  0.1486804517
 H  2.6668560631 -0.8509289902  0.1618055141
 H  2.9526068542  0.0752823944  1.6482835134
 H  0.6117065716 -0.8588507154  1.6500328029
 H  0.6259814191  0.9635567272  1.6161125342
 H -1.6328272736 -0.7501110386  0.5695378470
 H -1.5342500197  1.0116007598  0.5419607044
 H -1.6634734205  0.9057836465 -2.0574369219
 H -1.8957376582 -0.8547110058 -1.8448217674
 H -3.0631858992  0.3705397737 -1.2277271282
15
step 31
 O  0.1560910574  0.0325960651 -0.2390626260
 C -2.0204644897  0.1151498129 -1.3982553422
 C  2.3676366818  0.0053718716  0.7338212786
 C  0.8392326676  0.0222739953  1.0319789135
 C -1.2468746526  0.0981658497 -0.0158167839
 H  2.6363481935  0.8680203986  0.1519413100
 H  2.6673068320 -0.8488626770  0.1651998140
 H  2.9477770112  0.0718233308  1.6479458790
 H  0.6177206977 -0.8629405370  1.6483681427
 H  0.6209760535  0.9636138901  1.6265414349
 H -1.6297469552 -0.7489025309  0.5764579110
 H -1.5264495083  1.0173604560  0.5472237572
 H -1.6602780309  0.9058047711 -2.0585465119
 H -1.9066869539 -0.8455990461 -1.8481586775
 H -3.0636462730  0.3746592229 -1.2243507774
15
step 32
 O  0.1562033872  0.0343692027 -0.2369984981
 C -2.0217483347  0.1210081849 -1.3968726419
 C  2.3677755099  0.0068568497  0.7327682381
 C  0.8410610406  0.0222401027  1.0316265087
 C -1.2457867732  0.0995945575 -0.0128672580
 H  2.6389083178  0.8682887575  0.1543226311
 H  2.6678573977 -0.8488425332  0.1681788239
 H  2.9426584507  0.0675662325  1.6479717879
 H  0.6225557788 -0.8663958102  1.6462930942
 H  0.6159761833  0.9602390815  1.6352343263
 H -1.6259487808 -0.7476006194  0.5830551632
 H -1.5178734622  1.0219041385  0.5517254686
 H -1.6559850809  0.9048178410 -2.0593264202
 H -1.9181478245 -0.8380493890 -1.8531942690
 H -3.0641040733  0.3772191737 -1.2206671104
15
step 33
 O  0.1563789647  0.0360963144 -0.2348619307
 C -2.0229021522  0.1271011394 -1.3951669240
 C  2.3678280916  0.0085007954  0.7318063973
 C  0.8430811817  0.0224326747  1.0313561015
 C -1.2450940973  0.1012160387 -0.0100429143
 H  2.6414462023  0.8699385453  0.1556880324
 H  2.6685060535 -0.8509002993  0.1706147428
 H  2.9374256995  0.0626058484  1.6485428028
 H  0.6262331925 -0.8691566162  1.6437257338
 H  0.6111471886  0.9532755194  1.6419550843
 H -1.6214830915 -0.7461089450  0.5892186679
 H -1.5086412197  1.0250853805  0.5553828316
 H -1.6506557277  0.9030760848 -2.0597935891
 H -1.9300093296 -0.8321054485 -1.8597790725
 H -3.0646337590  0.3784588104 -1.2166868588
15
step 34
 O  0.1566215287  0.0377762417 -0.2326659867
 C -2.0239192472  0.1333651366 -1.3931391525
 C  2.3677960783  0.0102794186  0.7309313424
 C  0.8452696151  0.0228315577  1.0311813288
 C -1.2447841777  0.1030271032 -0.0073476985
 H  2.6440067958  0.8729995211  0.1560076524
 H  2.6691823766 -0.8548438772  0.1725040163
 H  2.9322412883  0.0570533611  1.6498051863
 H  0.6287976597 -0.8712026647  1.6406068834
 H  0.6065990492  0.9428746930  1.6466536893
 H -1.6164337333 -0.7443638555  0.5948658806
 H -1.4989291610  1.0269049061  0.5582005953
 H -1.6443633012  0.9008774740 -2.0599842460
 H -1.9421656005 -0.8275460834 -1.8676139660
 H -3.0653219321  0.3786588905 -1.2124259681
15
step 35
 O  0.1569333004  0.0394084721 -0.2304258862
 C -2.0247940103  0.1397154633 -1.3908030687
 C  2.3676930857  0.0121633714  0.7301255225
 C  0.8476033100  0.0233958336  1.0310987699
 C -1.2448326240  0.1050140849 -0.0047911819
 H  2.6465982917  0.8773388232  0.1553621727
 H  2.6697561040 -0.8602801793  0.1739527488
 H  2.9272415707  0.0510326793  1.6518461528
 H  0.6303148282 -0.8725604530  1.6369053310
 H  0.6023805128  0.9294862063  1.6494703899
 H -1.6109170007 -0.7423393734  0.5999462609
 H -1.4889630922  1.0275075668  0.5602690670
 H -1.6371973787  0.8985386525 -2.0599391835
 H -1.9545071346 -0.8239340659 -1.8762735184
 H -3.0662511499  0.3781291868 -1.2079070118
15
step 36
 O  0.1573149625  0.0409931565 -0.2281588063
 C -2.0255235619  0.1460563666 -1.3881831633
 C  2.3675437121  0.0141213676  0.7293633631
 C  0.8500605341  0.0240660318  1.0310879859
 C -1.2452045654  0.1071542438 -0.0023879666
 H  2.6491932580  0.8826778560  0.1539316235
 H  2.6700559614 -0.8666662267  0.1751449755
 H  2.9225257512  0.0446770455  1.6546753969
 H  0.6308687849 -0.8733068983  1.6326205843
 H  0.5984753110  0.9138353623  1.6507320163
 H -1.6050781440 -0.7400483392  0.6044422375
 H -1.4790068682  1.0271676161  0.5617550250
 H -1.6292691261  0.8963668547 -2.0596871083
 H -1.9669119565 -0.8206969436 -1.8852469379
 H -3.0674822405  0.3771949510 -1.2031607362
15
step 37
 O  0.1577656545  0.0425311410 -0.2258835962
 C -2.0261089835  0.1522921160 -1.3853118023
 C  2.3673810554  0.0161230459  0.7286174474
 C  0.8526214856  0.0247675413  1.0311128167
 C -1.2458566467  0.1094178793 -0.0001563142
 H  2.6517359366  0.8886288052  0.1519712366
 H  2.6698942150 -0.8733771944  0.1763018572
 H  2.9181500025  0.0381261088  1.6582155070
 H  0.6305594824 -0.8735688262  1.6277830171
 H  0.5948025439  0.8968824326  1.6509358025
 H -1.5990856236 -0.7375397079  0.6083674397
 H -1.4693477584  1.0262617965  0.5628854413
 H -1.6207166014  0.8946336124 -2.0592287392
 H -1.9792399461 -0.8172204964 -1.8939882538
 H -3.0690381894  0.3761836726 -1.1982271509
15
step 38
 O  0.1582829766  0.0440240090 -0.2236204083
 C -2.0265558779  0.1583370436 -1.3822260240
 C  2.3672432305  0.0181410947  0.7278644403
 C  0.8552683615  0.0254159310  1.0311245491
 C -1.2467394458  0.1117711839  0.0018839942
 H  2.6541538639  0.8947435243  0.1497790512
 H  2.6690921874 -0.8797784628  0.1776403023
 H  2.9141277728  0.0315233701  1.6623036154
 H  0.6295000744 -0.8735179233  1.6224514847
 H  0.5912247920  0.8797548834  1.6507135501
 H -1.5931234913 -0.7348922129  0.6117622724
 H -1.4602793277  1.0252301936  0.5639239404
 H -1.6117083654  0.8935540541 -2.0585246947
 H -1.9913319722 -0.8129365143 -1.9019669196
 H -3.0708926447  0.3754132495 -1.1931556263
15
step 39
 O  0.1588629942  0.0454741283 -0.2213902620
 C -2.0268742120  0.1641232501 -1.3789643598
 C  2.3671694621  0.0201524868  0.7270897110
 C  0.8579844603  0.0259247609  1.0310675286
 C -1.2478001457  0.1141797398  0.0037144599
 H  2.6563713792  0.9005662275  0.1476608703
 H  2.6675029104 -0.8852910713  0.1793374231
 H  2.9104362583  0.0250137333  1.6667046178
 H  0.6278142223 -0.8733610373  1.6167086555
 H  0.5875680148  0.8636456092  1.6507692331
 H -1.5873824699 -0.7322048803  0.6146871080
 H -1.4520830817  1.0245264606  0.5651408704
 H -1.6024437939  0.8932746999 -2.0574898526
 H -2.0030137026 -0.8073931726 -1.9087122294
 H -3.0729653503  0.3751823001 -1.1880036661
15
step 40
 O  0.1595002413  0.0468846880 -0.2192145684
 C -2.0270775548  0.1696054503 -1.3755638484
 C  2.3671962646  0.0221389379  0.7262901144
 C  0.8607520513  0.0262157849  1.0308873248
 C -1.2489852418  0.1166123573  0.0053210751
 H  2.6583227370  0.9056825153  0.1458975256
 H  2.6650286662 -0.8894442168  0.1815041646
 H  2.9070278650  0.0187408397  1.6711341413
 H  0.6256335276 -0.8733260640  1.6106544591
 H  0.5836556033  0.8496786200  1.6517883891
 H -1.5820504280 -0.7295851841  0.6172136091
 H -1.4450106225  1.0245617599  0.5667794993
 H -1.5931490032  0.8938710167 -2.0559957454
 H -2.0141028447 -0.8003036119 -1.9138480891
 H -3.0751255156  0.3757628593 -1.1828343312
15
step 41
 O  0.1601877297  0.0482597167 -0.2171146436
 C -2.0271819095  0.1747630671 -1.3720573120
 C  2.3673540956  0.0240868363  0.7254748987
 C  0.8635491699  0.0262302165  1.0305405991
 C -1.2502430430  0.1190447179  0.0066975179
 H  2.6599631645  0.9097597455  0.1447178346
 H  2.6616326148 -0.8919124454  0.1841688367
 H  2.9038446795  0.0128439601  1.6752878266
 H  0.6230952995 -0.8736441125  1.6043981801
 H  0.5793540906  0.8387585402  1.6543287442
 H -1.5773030052 -0.7271359475  0.6194149578
 H -1.4392683104  1.0256498140  0.5690227129
 H -1.5840681709  0.8953540978 -2.0538809590
 H -2.0244182542 -0.7915735032 -1.9171172796
 H -3.0772026249  0.3773952479 -1.1777125942
15
step 42
 O  0.1609169773  0.0496040728 -0.2151112366
 C -2.0272043531  0.1796000277 -1.3684709683
 C  2.3676647181  0.0259868770  0.7246650381
 C  0.8663461312  0.0259384332  1.0300046393
 C -1.2515257497  0.1214621487  0.0078478040
 H  2.6612769243  0.9125763670  0.1442789384
 H  2.6573445723 -0.8925377148  0.1872698082
 H  2.9008337152  0.0074543783  1.6788728416
 H  0.6203408335 -0.8745292140  1.5980498626
 H  0.5746209222  0.8314361999  1.6587152211
 H -1.5732950935 -0.7249423523  0.6213559888
 H -1.4350062125  1.0279624317  0.5719658707
 H -1.5754509688  0.8976842650 -2.0509679369
 H -2.0337895602 -0.7813105029 -1.9183957025
 H -3.0790029137  0.3802846117 -1.1727011197
15
step 43
 O  0.1616780746  0.0509234038 -0.2132240865
 C -2.0271616707  0.1841427834 -1.3648225211
 C  2.3681393952  0.0278335455  0.7238914088
 C  0.8691030565  0.0253450291  1.0292838519
 C -1.2527909742  0.1238609142  0.0087878781
 H  2.6622819900  0.9140396992  0.1446544500
 H  2.6522612994 -0.8913373175  0.1906562745
 H  2.8979609416  0.0026913700  1.6816378335
 H  0.6175142140 -0.8761575044  1.5917118211
 H  0.5695392807  0.8278286927  1.6649702716
 H -1.5701537629 -0.7230605611  0.6230843567