9
step 0
 O -0.2710284980  0.0764101833  0.5322756597
 C  1.1465127853  0.0183024138  0.3262148898
 C -0.9437183999 -0.0755356040 -0.7245700467
 H  1.6237389891  0.1370800837  1.3005296653
 H  1.4990928841  0.8178281174 -0.3335322260
 H  1.4609104580 -0.9397328763 -0.1005675513
 H -0.6816993748  0.7199297838 -1.4298367951
 H -0.7199137364 -1.0376339707 -1.1969034846
 H -2.0163951026 -0.0263481323 -0.5294101207
9
step 1
 O -0.2690663409  0.0761038606  0.5329934314
 C  1.1458183374  0.0233371682  0.3313005419
 C -0.9410359625 -0.0758222664 -0.7246943200
 H  1.6357448230  0.1260330523  1.3082876318
 H  1.4903328238  0.8249193173 -0.3383313524
 H  1.4528995677 -0.9322533096 -0.1043214208
 H -0.6778724265  0.7139882941 -1.4334341802
 H -0.7124705654 -1.0432317036 -1.1981633196
 H -2.0268502515 -0.0227744145 -0.5294370216
9
step 2
 O -0.2671398660  0.0758071279  0.5337264085
 C  1.1451738684  0.0283704192  0.3363560718
 C -0.9384443911 -0.0761609581 -0.7248103149
 H  1.6473039846  0.1151986433  1.3154218009
 H  1.4816371419  0.8317230418 -0.3425812224
 H  1.4450530714 -0.9248838947 -0.1081191301
 H -0.6739932571  0.7082711997 -1.4370716428
 H -0.7052852000 -1.0483132669 -1.1991089196
 H -2.0359049692 -0.0193417533 -0.5296983540
9
step 3
 O -0.2652817688  0.0755285942  0.5344903739
 C  1.1446254129  0.0334023705  0.3413573775
 C -0.9360136849 -0.0765962516 -0.7249114813
 H  1.6580111225  0.1047806846  1.3213838586
 H  1.4730794020  0.8380049924 -0.3457880432
 H  1.4375194668 -0.9176997968 -0.1119982828
 H -0.6700121906  0.7029657773 -1.4407789158
 H -0.6985813578 -1.0524435876 -1.1994707877
 H -2.0423986357 -0.0161759508 -0.5303846665
9
step 4
 O -0.2635239893  0.0752763764  0.5353005627
 C  1.1442120336  0.0384243730  0.3462760104
 C -0.9337892086 -0.0771603012 -0.7249940371
 H  1.6675194218  0.0949862411  1.3257506838
 H  1.4647605146  0.8436050812 -0.3475368121
 H  1.4304382303 -0.9107410469 -0.1159766217
 H -0.6658954479  0.6982111887 -1.4445525048
 H -0.6925474896 -1.0553027197 -1.1990416649
 H -2.0454870567 -0.0133847168 -0.5316274034
9
step 5
 O -0.2618970451  0.0750579747  0.5361714963
 C  1.1439628765  0.0434174834  0.3510781938
 C -0.9317883982 -0.0778697955 -0.7250572357
 H  1.6755659795  0.0860187397  1.3282626625
 H  1.4568114765  0.8484578595 -0.3475157545
 H  1.4239372488 -0.9040073680 -0.1200490100
 H -0.6616292747  0.6940852174 -1.4483459584
 H -0.6873269160 -1.0567135787 -1.1976911352
 H -2.0446881045 -0.0110522031 -0.5334929311
9
step 6
 O -0.2604293824  0.0748801576  0.5371168015
 C  1.1438951624  0.0483524261  0.3557246815
 C -0.9299997016 -0.0787246695 -0.7251032004
 H  1.6819890553  0.0780697508  1.3288452129
 H  1.4493921118  0.8526030117 -0.3455315053
 H  1.4181317045 -0.8974591036 -0.1241875300
 H -0.6572212789  0.6905998344 -1.4520674024
 H -0.6830115640 -1.0566561292 -1.1953732393
 H -2.0399007536 -0.0092350192 -0.5359813375
9
step 7
 O -0.2591467507  0.0747488659  0.5381490002
 C  1.1440131105  0.0531908059  0.3601713588
 C -0.9283829922 -0.0797085480 -0.7251363655
 H  1.6867371868  0.0713104166  1.3276153679
 H  1.4426863594  0.8561865418 -0.3415152762
 H  1.4131242299 -0.8910238962 -0.1283447288
 H -0.6526987966  0.6877058094 -1.4555849980
 H -0.6796389542 -1.0552692172 -1.1921277589
 H -2.0314070690 -0.0079591616 -0.5390281460
9
step 8
 O -0.2580716077  0.0746691354  0.5392792606
 C  1.1443078148  0.0578873894  0.3643704978
 C -0.9268712526 -0.0807907789 -0.7251625893
 H  1.6898701095  0.0658832962  1.3248746911
 H  1.4368945424  0.8594531578 -0.3355201925
 H  1.4090059544 -0.8846079141 -0.1324595751
 H -0.6481045018  0.6853051782 -1.4587395799
 H -0.6771923033 -1.0528406910 -1.1880755272
 H -2.0198593608 -0.0072177596 -0.5425084628
9
step 9
 O -0.2572225585  0.0746450425  0.5405171138
 C  1.1447581582  0.0623932732  0.3682726195
 C -0.9253739197 -0.0819298431 -0.7251880352
 H  1.6915508917  0.0618953135  1.3210884577
 H  1.4322229149  0.8627299342 -0.3277096484
 H  1.4058579850 -0.8781098738 -0.1364653331
 H -0.6434898179  0.6832693346 -1.4613625345
 H -0.6756039549 -1.0497856263 -1.1834076842
 H -2.0062468993 -0.0069702187 -0.5462444274
9
step 10
 O -0.2566138440  0.0746796739  0.5418701452
 C  1.1453328842  0.0666597447  0.3718289563
 C -0.9237827672 -0.0830778599 -0.7252179032
 H  1.6920282285  0.0594125037  1.3168499265
 H  1.4288707569  0.8664010658 -0.3183364042
 H  1.4037529169 -0.8714359003 -0.1402983305
 H -0.6389069245  0.6814600237 -1.4632962765
 H -0.6747625733 -1.0466120564 -1.1783686142
 H -1.9918303811 -0.0071440123 -0.5500178233
9
step 11
 O -0.2562549028  0.0747751220  0.5433436811
 C  1.1459939042  0.0706426137  0.3749945090
 C -0.9219813354 -0.0841858277 -0.7252550677
 H  1.6916080506  0.0584572281  1.3128286093
 H  1.4270154472  0.8708738352 -0.3077126884
 H  1.4027560741 -0.8645133709 -0.1439065263
 H -0.6344002757  0.6797505056 -1.4644145194
 H -0.6745244149 -1.0438741816 -1.1732326649
 H -1.9780306830 -0.0076407094 -0.5535898795
9
step 12
 O -0.2561500324  0.0749325025  0.5449404863
 C  1.1467007533  0.0743067199  0.3777316258
 C -0.9198583904 -0.0852091414 -0.7252986680
 H  1.6906149929  0.0590082742  1.3097034122
 H  1.4267962898  0.8765370425 -0.2961730007
 H  1.4029262852 -0.8573021723 -0.1472568296
 H -0.6299985975  0.6780444687 -1.4646398156
 H -0.6747283707 -1.0421148904 -1.1682757695
 H -1.9662653949 -0.0083473467 -0.5567290387
9
step 13
 O -0.2562981770  0.0751519898  0.5466604975
 C  1.1474158215  0.0776302280  0.3800138780
 C -0.9173244332 -0.0861128532 -0.7253427943
 H  1.6893469224  0.0610036930  1.3080854738
 H  1.4282983300  0.8837150609 -0.2840334509
 H  1.4043160434 -0.8498021537 -0.1503402554
 H -0.6257083613  0.6762906653 -1.4639563208
 H -0.6752134173 -1.0418023624 -1.1637446084
 H -1.9577449693 -0.0091525575 -0.5592444264
9
step 14
 O -0.2566928605  0.0754328587  0.5485006131
 C  1.1481096538  0.0806082241  0.3818297849
 C -0.9143281774 -0.0868761188 -0.7253755970
 H  1.6880290310  0.0643454929  1.3084405300
 H  1.4315378829  0.8926229307 -0.2715535989
 H  1.4069708854 -0.8420558735 -0.1531741819
 H -0.6215097368  0.6744915988 -1.4624162433
 H -0.6758359478 -1.0432687376 -1.1598274555
 H -1.9532664057 -0.0099642665 -0.5610186251
9
step 15
 O -0.2573222775  0.0757735239  0.5504545730
 C  1.1487653685  0.0832550718  0.3831857376
 C -0.9108683233 -0.0874952966 -0.7253792882
 H  1.6867764828  0.0689047845  1.3110245648
 H  1.4364518430  0.9033296372 -0.2589077910
 H  1.4109277841 -0.8341460102 -0.1558011823
 H -0.6173559286  0.6727049132 -1.4601388861
 H -0.6764837487 -1.0466610025 -1.1566316504
 H -1.9530619414 -0.0107236655 -0.5620304969
9
step 16
 O -0.2581695454  0.0761715716  0.5525129626
 C  1.1493812491  0.0856050159  0.3841074180
 C -0.9069964087 -0.0879852034 -0.7253314053
 H  1.6855745482  0.0745260657  1.3158467798
 H  1.4428928849  0.9157369112 -0.2461719845
 H  1.4162123725 -0.8261871157 -0.1582841621
 H -0.6131764868  0.6710365840 -1.4573016631
 H -0.6770836680 -1.0519140005 -1.1541721170
 H -1.9567547366 -0.0114105620 -0.5623600884
9
step 17
 O -0.2592131146  0.0766237872  0.5546633724
 C  1.1499709074  0.0877106800  0.3846391991
 C -0.9028094323 -0.0883781017 -0.7252073015
 H  1.6842816741  0.0810301357  1.3226690871
 H  1.4506321833  0.9295789009 -0.2333288547
 H  1.4228349443 -0.8183118923 -0.1606978993
 H -0.6088846052  0.6696257615 -1.4541231653
 H -0.6776014317 -1.0587521103 -1.1523733446
 H -1.9634380418 -0.0120385469 -0.5621736332
9
step 18
 O -0.2604273232  0.0771261903  0.5568907225
 C  1.1505610023  0.0896394141  0.3848414397
 C -0.8984347260 -0.0887202298 -0.7249833595
 H  1.6826549982  0.0882161958  1.3310425915
 H  1.4593702343  0.9444441056 -0.2202895740
 H  1.4307854044 -0.8106529779 -0.1631175961
 H -0.6043876946  0.6686222906 -1.4508393952
 H -0.6780341522 -1.0667202563 -1.1510842983
 H -1.9718483368 -0.0126427378 -0.5616940097
9
step 19
 O -0.2617830707  0.0776740895  0.5591777329
 C  1.1511870955  0.0914678470  0.3847860725
 C -0.8940117942 -0.0890661525 -0.7246401970
 H  1.6803919676  0.0958643600  1.3403724872
 H  1.4687549221  0.9598162885 -0.2069267471
 H  1.4400276247 -0.8033222715 -0.1656056966
 H -0.5995998232  0.6681594340 -1.4476756583
 H -0.6783979381 -1.0752384883 -1.1501028860
 H -1.9805755317 -0.0132652075 -0.5611660990
9
step 20
 O -0.2632485753  0.0782621663  0.5615054949
 C  1.1518885758  0.0932753776  0.3845512400
 C -0.8896755468 -0.0894717629 -0.7241652293
 H  1.6771785341  0.1037396781  1.3499973200
 H  1.4784046324  0.9751274218 -0.1931110905
 H  1.4504939505 -0.7963908338 -0.1681988487
 H -0.5944541580  0.6683258039 -1.4448179798
 H -0.6787138810 -1.0836698474 -1.1492049729
 H -1.9882568668 -0.0139425378 -0.5608255847
9
step 21
 O -0.2647901705  0.0788845884  0.5638540816
 C  1.1527035799  0.0951375417  0.3842158301
 C -0.8855434408 -0.0899871330 -0.7235542188
 H  1.6727347717  0.1115980627  1.3592682913
 H  1.4879334652  0.9898143087 -0.1787449983
 H  1.4620808275 -0.7898729258 -0.1708972584
 H -0.5889134249  0.6691414322 -1.4423887673
 H -0.6789953491 -1.0913901424 -1.1481729579
 H -1.9937245565 -0.0146975623 -0.5608758092
9
step 22
 O -0.2663730978  0.0795351469  0.5662031348
 C  1.1536645667  0.0971201549  0.3838546282
 C -0.8817070446 -0.0906503963 -0.7228116813
 H  1.6668516900  0.1191937259  1.3676180665
 H  1.4969756518  1.0033714821 -0.1637884040
 H  1.4746465873 -0.7837174352 -0.1736585703
 H -0.5829766746  0.6705427416 -1.4404312322
 H -0.6792383916 -1.0978503723 -1.1468202604
 H -1.9961018264 -0.0155351534 -0.5614733533
9
step 23
 O -0.2679622590  0.0802074053  0.5685323794
 C  1.1547948504  0.0992748766  0.3835345375
 C -0.8782273221 -0.0914835075 -0.7219501911
 H  1.6594166010  0.1262872901  1.3746137149
 H  1.5052069861  1.0153953950 -0.1482750501
 H  1.4880122815 -0.7778087467 -0.1763977361
 H -0.5766812644  0.6723797503 -1.4389056315
 H -0.6794158129 -1.1026262709 -1.1450098651
 H -1.9948568354 -0.0164407973 -0.5627206955
9
step 24
 O -0.2695229069  0.0808948474  0.5708220412
 C  1.1561061312  0.1016364970  0.3833120376
 C -0.8751325684 -0.0924902357 -0.7209887496
 H  1.6504271176  0.1326537267  1.3799926363
 H  1.5123620066  1.0256175189 -0.1323193548
 H  1.5019660644 -0.7719773308 -0.1789932728
 H -0.5700997956  0.6744264581 -1.4376980258
 H -0.6794746093 -1.1054529974 -1.1426665672
 H -1.9898280115 -0.0173806054 -0.5646637187
9
step 25
 O -0.2710212658  0.0815910132  0.5730531670
 C  1.1575969481  0.1042219404  0.3832318562
 C -0.8724181308 -0.0936563109 -0.7199504818
 H  1.6399951397  0.1380895165  1.3836824773
 H  1.5182464149  1.0339257801 -0.1161150859
 H  1.5162710871 -0.7660185244 -0.1812991575
 H -0.5633325744  0.6764027871 -1.4366397604
 H -0.6793361305 -1.1062452073 -1.1397833386
 H -1.9812311212 -0.0183018727 -0.5672923530
9
step 26
 O -0.2724250869  0.0822896168  0.5752078680
 C  1.1592520068  0.1070308013  0.3833267331
 C -0.8700475414 -0.0949513782 -0.7188599873
 H  1.6283422325  0.1424187073  1.3858061822
 H  1.5227445572  1.0403744203 -0.0999271465
 H  1.5306763076 -0.7597166669 -0.1831607214
 H -0.5564967587  0.6780045037 -1.4355340597
 H -0.6788984166 -1.1051033342 -1.1364223207
 H -1.9696516562 -0.0191339481 -0.5705436555
9
step 27
 O -0.2737041428  0.0829846410  0.5772695149
 C  1.1610424267  0.1100471987  0.3836181772
 C -0.8679552850 -0.0963323359 -0.7177406616
 H  1.6157872084  0.1454977081  1.3866721666
 H  1.5258217314  1.0451820301 -0.0840773702
 H  1.5449291966 -0.7528712126 -0.1844324524
 H -0.5497136123  0.6789366968 -1.4341854424
 H -0.6780404729 -1.1023063538 -1.1327105888
 H -1.9560183947 -0.0197898436 -0.5743077120
9
step 28
 O -0.2748306598  0.0836704100  0.5792229081
 C  1.1629270392  0.1132427963  0.3841181936
 C -0.8660519751 -0.0977476801 -0.7166122462
 H  1.6027261512  0.1472187280  1.3867482118
 H  1.5275208217  1.0487167311 -0.0689247779
 H  1.5587890923 -0.7453216079 -0.1849956221
 H -0.5430952418  0.6789466042 -1.4324280272
 H -0.6766285809 -1.0982903426 -1.1288303823
 H -1.9415472834 -0.0201696021 -0.5784375684
9
step 29
 O -0.2757796759  0.0843416384  0.5810544361
 C  1.1648548703  0.1165809115  0.3848320127
 C -0.8642329697 -0.0991425525 -0.7154887800
 H  1.5896051036  0.1475118127  1.3866171336
 H  1.5279525979  1.0514669803 -0.0548406368
 H  1.5720399211 -0.7369683218 -0.1847739329
 H -0.5367320132  0.6778524097 -1.4301497653
 H -0.6745249309 -1.0936116817 -1.1250033060
 H -1.9276418239 -0.0201668185 -0.5827645620
9
step 30
 O -0.2765293038  0.0849934560  0.5827522188
 C  1.1667688215  0.1200216074  0.3857618052
 C -0.8623910958 -0.1004642036 -0.7143770934
 H  1.5768864816  0.1463455883  1.3869136295
 H  1.5272793101  1.0539969996 -0.0421790880
 H  1.5845010916 -0.7277881375 -0.1837457597
 H -0.5306816975  0.6755655909 -1.4273106670
 H -0.6715988006 -1.0888945457 -1.1214683601
 H -1.9157408656 -0.0196795717 -0.5871194395
9
step 31
 O -0.2770608828  0.0856214100  0.5843062255
 C  1.1686103245  0.1235274965  0.3869111464
 C -0.8604328515 -0.1016675224 -0.7132760382
 H  1.5650118956  0.1437271111  1.3882454700
 H  1.5256921681  1.0568879101 -0.0312450881
 H  1.5960355108 -0.7178424094 -0.1819518810
 H -0.5249613873  0.6721050771 -1.4239538101
 H -0.6677400827 -1.0847647701 -1.1184547034
 H -1.9071206295 -0.0186259396 -0.5913572693
9
step 32
 O -0.2773590244  0.0862214470  0.5857083636
 C  1.1703244466  0.1270696682  0.3882896263
 C -0.8582953596 -0.1027201604 -0.7121767493
 H  1.5543659010  0.1397015161  1.3911078957
 H  1.5233848877  1.0606692878 -0.0222627123
 H  1.6065538314 -0.7072773721 -0.1794977995
 H -0.5195433315  0.6676017850 -1.4202082106
 H -0.6628742107 -1.0817760949 -1.1161516692
 H -1.9026831624 -0.0169620933 -0.5953810115
9
step 33
 O -0.2774115816  0.0867898863  0.5869525485
 C  1.1718646888  0.1306328171  0.3899166357
 C -0.8559594835 -0.1036066436 -0.7110642575
 H  1.5452463160  0.1343521828  1.3958056668
 H  1.5205272402  1.0657501625 -0.0153480305
 H  1.6160142085 -0.6963158130 -0.1765498909
 H -0.5143559086  0.6622921465 -1.4162826050
 H -0.6569765827 -1.0803389901 -1.1146802814
 H -1.9027862203 -0.0146984303 -0.5991566094
9
step 34
 O -0.2772095911  0.0873233967  0.5880347778
 C  1.1731966784  0.1342184717  0.3918232246
 C -0.8534544644 -0.1043307646 -0.7099205588
 H  1.5378462266  0.1278016587  1.4023995701
 H  1.5172436190  1.0723616687 -0.0104911851
 H  1.6244170594 -0.6852396998 -0.1733248248
 H -0.5092907472  0.6564994176 -1.4124492093
 H -0.6500838161 -1.0806648958 -1.1140715801
 H -1.9071708365 -0.0119080833 -0.6027138715
9
step 35
 O -0.2767472322  0.0878189949  0.5889532316
 C  1.1743001901  0.1378453844  0.3940512178
 C -0.8508520136 -0.1049155457 -0.7087288053
 H  1.5322504200  0.1202127143  1.4106907508
 H  1.5136012232  1.0805235357 -0.0075514423
 H  1.6317946764 -0.6743639963 -0.1700721844
 H -0.5042163497  0.6506023604 -1.4090170405
 H -0.6422990816 -1.0827377975 -1.1142566612
 H -1.9150129740 -0.0087239723 -0.6061324827
9
step 36
 O -0.2760218216  0.0882740711  0.5897084016
 C  1.1751693492  0.1415467029  0.3966494634
 C -0.8482517276 -0.1054003074 -0.7074778532
 H  1.5284455533  0.1117881388  1.4202472070
 H  1.5096103102  1.0900423272 -0.0062667792
 H  1.6381961765 -0.6640031771 -0.1670511359
 H -0.4989974284  0.6449927716 -1.4062958448
 H -0.6337896868 -1.0863198548 -1.1150711502
 H -1.9250792975 -0.0053248125 -0.6095183054
9
step 37
 O -0.2750338401  0.0886864415  0.5903032279
 C  1.1758113054  0.1453643358  0.3996678984
 C -0.8457625155 -0.1058349661 -0.7061662579
 H  1.5263403410  0.1027677787  1.4304657730
 H  1.5052358071  1.1005418571 -0.0062766007
 H  1.6436692695 -0.6544337876 -0.1645033251
 H -0.4935177466  0.6400262283 -1.4045540842
 H -0.6247768296 -1.0909897648 -1.1162734732
 H -1.9359336881 -0.0019144708 -0.6129779300
9
step 38
 O -0.2737869716  0.0890544152  0.5907432113
 C  1.1762439049  0.1493416554  0.4031506787
 C -0.8434849549 -0.1062724674 -0.7048049712
 H  1.5257906316  0.0934219975  1.4406548664
 H  1.5004167537  1.1115185342 -0.0071535575
 H  1.6482415133 -0.6458582482 -0.1626255597
 H -0.4877029249  0.6359735065 -1.4039771734
 H -0.6155192917 -1.0962048910 -1.1175730921
 H -1.9461382415  0.0012996337 -0.6165980328
9
step 39
 O -0.2722881423  0.0893768590  0.5910364746
 C  1.1764928768  0.1535160484  0.4071297309
 C -0.8414977292 -0.1067608825 -0.7034183044
 H  1.5266246598  0.0840417873  1.4501212074
 H  1.4950887309  1.1224096787 -0.0084391625
 H  1.6519046579 -0.6383760908 -0.1615466590
 H -0.4815389420  0.6329819081 -1.4046339830
 H -0.6062939662 -1.1013740690 -1.1186631627
 H -1.9544131959  0.0041248511 -0.6204324643
9
step 40
 O -0.2705475614  0.0896532456  0.5911937603
 C  1.1765888665  0.1579127160  0.4116197718
 C -0.8398491082 -0.1073367855 -0.7020430061
 H  1.5286653301  0.0749265778  1.4582471159
 H  1.4892048612  1.1326625254 -0.0096782793
 H  1.6546057607 -0.6319681812 -0.1613126125
 H -0.4750824003  0.6310548240 -1.4064592424
 H -0.5973761563 -1.1059285213 -1.1192523045
 H -1.9597458348  0.0063966889 -0.6244967422
9
step 41
 O -0.2685787669  0.0898836763  0.5912283678
 C  1.1765644614  0.1625406397  0.4166153432
 C -0.8385529035 -0.1080210526 -0.7007255611
 H  1.5317481430  0.0663710595  1.4645508999
 H  1.4827525145  1.1417947383 -0.0104491045
 H  1.6562476513 -0.6264971309 -0.1618827421
 H -0.4684601801  0.6300539927 -1.4092564011
 H -0.5890217685 -1.1093821694 -1.1190917923
 H -1.9614556738  0.0079876733 -0.6287679958
9
step 42
 O -0.2663986806  0.0900688741  0.5911560420
 C  1.1764512666  0.1673910012  0.4220899218
 C -0.8375877000 -0.1088174404 -0.6995180655
 H  1.5357346453  0.0586521353  1.4687282263
 H  1.4757645651  1.1494416276 -0.0103871113
 H  1.6566992763 -0.6217237400 -0.1631373350
 H -0.4618584487  0.6297234283 -1.4127206821
 H -0.5814524239 -1.1113774097 -1.1179964537
 H -1.9592293285  0.0088130113 -0.6331882115
9
step 43
 O -0.2640276587  0.0902101509  0.5909948265
 C  1.1762771299  0.1724378174  0.4279968609
 C -0.8368982169 -0.1097135779 -0.6984732466
 H  1.5405218491  0.0520167513  1.4706755098
 H  1.4683252621  1.1553889010 -0.0092028377
 H  1.6558142037 -0.6173361612 -0.1648949966
 H -0.4555032532  0.6297291505 -1.4164774561
 H -0.5748436490 -1.1117160993 -1.1158590535
 H -1.9531363990  0.0088342997 -0.6376691846
9
step 44
 O -0.2614895108  0.0903093558  0.5907648876
 C  1.1760637003  0.1776402539  0.4342718046
 C -0.8363981104 -0.1106836066 -0.6976392950
 H  1.5460479983  0.0466711227  1.4704971143
 H  1.4605712939  1.1595917280 -0.0066940372
 H  1.6534539640 -0.6129865510 -0.1669364814
 H -0.4496362479  0.6297064892 -1.4201284890
 H -0.5693159209 -1.1103772190 -1.1126586174
 H -1.9436313155  0.0080618217 -0.6420982980
9
step 45
 O -0.2588114449  0.0903688116  0.5904883086
 C  1.1758245886  0.1829460354  0.4408362740
 C -0.8359741894 -0.1116916637 -0.6970551320
 H  1.5522945921  0.0427718984  1.4684972729
 H  1.4526885992  1.1621811638 -0.0027526023
 H  1.6495123926 -0.6083296630 -0.1690313280
 H -0.4444892232  0.6293072027 -1.4232986331
 H -0.5649284630 -1.1075225942 -1.1084630755
 H -1.9315380435  0.0065549723 -0.6463448360
9
step 46
 O -0.2560238926  0.0903912495  0.5901888384
 C  1.1755644267  0.1882955003  0.4476022384
 C -0.8354926937 -0.1126956205 -0.6967465883
 H  1.5592839472  0.0404200518  1.4651562196
 H  1.4449052021  1.1634581419  0.0026339159
 H  1.6439376084 -0.6030587687 -0.1709640579
 H -0.4402603002  0.6282409453 -1.4256774205
 H -0.5616761545 -1.1034908089 -1.1034261176
 H -1.9180068258  0.0044193430 -0.6502668837
9
step 47
 O -0.2531601780  0.0903797484  0.5898915740
 C  1.1752790947  0.1936260333  0.4544775574
 C -0.8348087194 -0.1136507807 -0.6967237916
 H  1.5670710715  0.0396585429  1.4610892005
 H  1.4374801035  1.1638740922  0.0093870673
 H  1.6367492841 -0.5969357673 -0.1725575572
 H -0.4370935942  0.6263082718 -1.4270524466
 H -0.5594905076 -1.0987778793 -1.0977776193
 H -1.9044273180  0.0017983605 -0.6537189452
9
step 48
 O -0.2502560140  0.0903376844  0.5896225533
 C  1.1749573003  0.1988767648  0.4613721195
 C -0.8337797104 -0.1145135261 -0.6969799259
 H  1.5757285639  0.0404747598  1.4569877866
 H  1.4306882432  1.1639965796  0.0173497987
 H  1.6280499275 -0.5898137012 -0.1736920783
 H -0.4350633419  0.6234242865 -1.4273333217
 H -0.5582460624 -1.0940021755 -1.0918067847
 H -1.8922847457 -0.0011422803 -0.6565602746
9
step 49
 O -0.2473488464  0.0902686938  0.5894082404
 C  1.1745835410  0.2039934792  0.4682042823
 C -0.8322827643 -0.1152450958 -0.6974914226
 H  1.5853240082  0.0428081328  1.4535457999
 H  1.4248018458  1.1644589189  0.0263072041
 H  1.6180297227 -0.5816507770 -0.1743188126
 H -0.4341632133  0.6196327853 -1.4265658217
 H -0.5577734145 -1.0898513162 -1.0858375770
 H -1.8829598197 -0.0042371773 -0.6586636317
9
step 50
 O -0.2444770931  0.0901766518  0.5892749046
 C  1.1741422399  0.2089336064  0.4749068990
 C -0.8302333137 -0.1158157640 -0.6982195823
 H  1.5958911134  0.0465620477  1.4513769156
 H  1.4200690839  1.1658949970  0.0360153051
 H  1.6069649331 -0.5725153220 -0.1744671271
 H -0.4343017462  0.6151103974 -1.4249356885
 H -0.5578790854 -1.0870110189 -1.0801972487
 H -1.8774997153 -0.0073470220 -0.6599238716
9
step 51
 O -0.2416793399  0.0900656649  0.5892479137
 C  1.1736225526  0.2136709685  0.4814319512
 C -0.8276004365 -0.1162094990 -0.6991135509
 H  1.6073984354  0.0516176399  1.4509361159
 H  1.4166918116  1.1688645095  0.0462351660
 H  1.5952099988 -0.5625810432 -0.1742444212
 H -0.4353052988  0.6101592162 -1.4227606574
 H -0.5583705060 -1.0860805268 -1.0751807911
 H -1.8764161688 -0.0103803706 -0.6602655294
9
step 52
 O -0.2389935397  0.0899400692  0.5893509846
 C  1.1730230731  0.2181996644  0.4877527915
 C -0.8244134014 -0.1164286250 -0.7001145053
 H  1.6197219894  0.0578460098  1.4524600881
 H  1.4148049539  1.1737785670  0.0567670723
 H  1.5831833915 -0.5521117684 -0.1738273595
 H -0.4369301862  0.6051853838 -1.4204683209
 H -0.5590819564 -1.0874855409 -1.0710164015
 H -1.8795765328 -0.0133035539 -0.6596484143
9
step 53
 O -0.2364562276  0.0898044228  0.5896054502
 C  1.1723555391  0.2225362095  0.4938633384
 C -0.8207563787 -0.1164971833 -0.7011608086
 H  1.6326290034  0.0651156772  1.4559399551
 H  1.4144606380  1.1808391936  0.0674778278
 H  1.5713473253 -0.5414350141 -0.1734433239
 H -0.4388851961  0.6006610335 -1.4185573133
 H -0.5598955426 -1.0914052406 -1.0678385894
 H -1.8862283117 -0.0161350284 -0.6580702422
9
step 54
 O -0.2341017361  0.0896634767  0.5900296060
 C  1.1716467735  0.2267190181  0.4997742152
 C -0.8167526577 -0.1164611873 -0.7021937853
 H  1.6457784027  0.0732938308  1.4611328495
 H  1.4156199781  1.1900062086  0.0783147084
 H  1.5601818675 -0.5309047584 -0.1733417269
 H -0.4408640404  0.5970689628 -1.4175410920
 H -0.5607515583 -1.0977313125 -1.0656750901
 H -1.8951469196 -0.0189272409 -0.6555656678
9
step 55
 O -0.2319613881  0.0895221153  0.5906381955
 C  1.1709384624  0.2308047040  0.5055065342
 C -0.8125434136 -0.1163844251 -0.7031635941
 H  1.6587395387  0.0822423441  1.4676091374
 H  1.4181543362  1.2010000357  0.0893027003
 H  1.5501550419 -0.5208559868 -0.1737566622
 H -0.4425844708  0.5948339840 -1.4178779632
 H -0.5616454437 -1.1060712495 -1.0644507610
 H -1.9048527478 -0.0217438075 -0.6522017869
9
step 56
 O -0.2300626675  0.0893852635  0.5914420760
 C  1.1702848420  0.2348614630  0.5110845401
 C -0.8082669109 -0.1163399786 -0.7040344582
 H  1.6710259045  0.0918113097  1.4748237260
 H  1.4218560858  1.2133403187  0.1005262955
 H  1.5416919014 -0.5115565747 -0.1748650952
 H -0.4438275511  0.5942511677 -1.4198972197
 H -0.5626128761 -1.1157966051 -1.0640070565
 H -1.9138328566 -0.0246396802 -0.6480710069
9
step 57
 O -0.2284283978  0.0892577702  0.5924480784
 C  1.1697487364  0.2389606900  0.5165284889
 C -0.8040422829 -0.1163993928 -0.7047883217
 H  1.6821372283  0.1018331786  1.4821961994
 H  1.4264570175  1.2264114671  0.1121012099
 H  1.5351466720 -0.5031647041 -0.1767475644
 H -0.4444685264  0.5954263577 -1.4237366417
 H -0.5637080498 -1.1261246477 -1.0641316851
 H -1.9207222124 -0.0276483278 -0.6432826779
9
step 58
 O -0.2270759810  0.0891442797  0.5936590431
 C  1.1693965572  0.2431685214  0.5218489718
 C -0.7999594117 -0.1166223714 -0.7054260358
 H  1.6916026083  0.1121196249  1.4891860972
 H  1.4316512849  1.2395411644  0.1241431291
 H  1.5307821848 -0.4957006994 -0.1793597614
 H -0.4444915556  0.5982447057 -1.4293074376
 H -0.5649812331 -1.1362148596 -1.0645914889
 H -1.9244286725 -0.0307760268 -0.6379547974
9
step 59
 O -0.2260167519  0.0890491087  0.5950739840
 C  1.1692928699  0.2475389109  0.5270434787
 C -0.7960743829 -0.1170494842 -0.7059655999
 H  1.6990188652  0.1224618261  1.4953544596
 H  1.4371195662  1.2520779875  0.1367396941
 H  1.5287596058 -0.4890398802 -0.1825221551
 H -0.4439847046  0.6023766921 -1.4362968362
 H -0.5664602611 -1.1452622958 -1.0651626806
 H -1.9242074999 -0.0340011924 -0.6322065862
9
step 60
 O -0.2252554912  0.0889761436  0.5966883260
 C  1.1694950392  0.2521092182  0.5320954773
 C -0.7924089661 -0.1176989867 -0.7064377144
 H  1.7040807390  0.1326337480  1.5004079902
 H  1.4425517717  1.2634582489  0.1499294805
 H  1.5291392678 -0.4829282073 -0.1859309478
 H -0.4431173930  0.6073203499 -1.4442078630
 H -0.5681381111 -1.1525757835 -1.0656551082
 H -1.9196999705 -0.0372763587 -0.6261521054
9
step 61
 O -0.2247901242  0.0889287671  0.5984941614
 C  1.1700483836  0.2568984584  0.5369757823
 C -0.7889524419 -0.1185673574 -0.7068796022
 H  1.7066016441  0.1423975746  1.5042258343
 H  1.4476666542  1.2732573053  0.1636891987
 H  1.5318910992 -0.4770170391 -0.1891885094
 H -0.4421070486  0.6124685232 -1.4524255971
 H -0.5699665343 -1.1576361453 -1.0659296548
 H -1.9109495389 -0.0405311358 -0.6198946566
9
step 62
 O -0.2246116161  0.0889098200  0.6004804889
 C  1.1709822104  0.2619077196  0.5416456742
 C -0.7856646098 -0.1196322718 -0.7073283702
 H  1.7065247827  0.1515105153  1.5068703927
 H  1.4522275898  1.2812245802  0.1779286767
 H  1.5369116206 -0.4709094817 -0.1918471860
 H -0.4411830478  0.6171855995 -1.4602942588
 H -0.5718545800 -1.1601348585 -1.0659093665
 H -1.8984026460 -0.0436754453 -0.6135216380
9
step 63
 O -0.2247040647  0.0889215940  0.6026334183
 C  1.1723070598  0.2671219973  0.5460611554
 C -0.7824796572 -0.1208566347 -0.7078150066
 H  1.7039244988  0.1597325659  1.5085831790
 H  1.4560543137  1.2873034656  0.1924925764
 H  1.5440441224 -0.4642098261 -0.1934585613
 H -0.4405542526  0.6208800610 -1.4671909526
 H -0.5736706748 -1.1599956989 -1.0655852968
 H -1.8828928759 -0.0466031949 -0.6070999119
9
step 64
 O -0.2250449864  0.0889658493  0.6049363380
 C  1.1740134498  0.2725128051  0.5501778817
 C -0.7793114721 -0.1221927501 -0.7083596274
 H  1.6989973188  0.1668351592  1.5097653930
 H  1.4590304614  1.2916372397  0.2071679301
 H  1.5530992484 -0.4565690799 -0.1936209613
 H -0.4403833189  0.6230647050 -1.4725872660
 H -0.5752473431 -1.1573814255 -1.0650177001
 H -1.8655989737 -0.0491971937 -0.6006725764
9
step 65
 O -0.2256057911  0.0890438449  0.6073700576
 C  1.1760723473  0.2780412247  0.5539565253
 C -0.7760616178 -0.1235863109 -0.7089680685
 H  1.6920418476  0.1726108568  1.5109417106
 H  1.4611065180  1.2945609139  0.2216970099
 H  1.5638742235 -0.4477222581 -0.1920201651
 H -0.4407682232  0.6234019656 -1.4760956500
 H -0.5763882722 -1.1526855318 -1.0643324661
 H -1.8479616543 -0.0513364857 -0.5942591848
9
step 66
 O -0.2263524347  0.0891563731  0.6099129375
 C  1.1784374718  0.2836613612  0.5573684520
 C -0.7726311709 -0.1249803803 -0.7096295823
 H  1.6834272924  0.1768842746  1.5127059229
 H  1.4622974433  1.2965774618  0.2357953258
 H  1.5761698689 -0.4375155443 -0.1884605874
 H -0.4417300447  0.6217352404 -1.4775012534
 H -0.5768779688 -1.1465067566 -1.0637119453
 H -1.8315451138 -0.0529072409 -0.5878624148
9
step 67
 O -0.2272462324  0.0893037911  0.6125410176
 C  1.1810493116  0.2893243424  0.5604015121
 C -0.7689365777 -0.1263197837 -0.7103153520
 H  1.6735523529  0.1795242428  1.5156494128
 H  1.4626741370  1.2983161707  0.2491744219
 H  1.5898050038 -0.4259228860 -0.1828857488
 H -0.4432059744  0.6181079907 -1.4767810537
 H -0.5764945185 -1.1396026101 -1.0633788874
 H -1.8178415274 -0.0538175822 -0.5814838804
9
step 68
 O -0.2282448056  0.0894860428  0.6152281605
 C  1.1838404217  0.2949829624  0.5630654162
 C -0.7649275063 -0.1275563101 -0.7109778420
 H  1.6627993565  0.1804567621  1.5202782981
 H  1.4623483277  1.3004718242  0.2615684575
 H  1.6046277955 -0.4130519385 -0.1753873843
 H -0.4450473967  0.6127711693 -1.4741111271
 H -0.5750257905 -1.1328188620 -1.0635724721
 H -1.8080420748 -0.0540150132 -0.5751489756
9
step 69
 O -0.2293031583  0.0897026922  0.6179463598
 C  1.1867412183  0.3005969014  0.5653956750
 C -0.7606021437 -0.1286548671 -0.7115515614
 H  1.6514918902  0.1796777612  1.5269311281
 H  1.4614521793  1.3037265938  0.2727619303
 H  1.6205228133 -0.3991392299 -0.1662023852
 H -0.4470239697  0.6061771326 -1.4698607221
 H -0.5722887627 -1.1269960436 -1.0645170025
 H -1.8028275047 -0.0535027005 -0.5689353120
9
step 70
 O -0.2303747521  0.0899528750  0.6206658133
 C  1.1896854739  0.3061376100  0.5674550777
 C -0.7560144583 -0.1295995809 -0.7119562888
 H  1.6398644701  0.1772630236  1.5357142087
 H  1.4601128044  1.3086623392  0.2826167474
 H  1.6374136162 -0.3845317586 -0.1556957603
 H -0.4488364991  0.5989550847 -1.4645682189
 H -0.5681497493 -1.1228604379 -1.0663848060
 H -1.8022441573 -0.0523497280 -0.5629942463
9
step 71
 O -0.2314126969  0.0902353025  0.6233554973
 C  1.1926145004  0.3115923593  0.5693312543
 C -0.7512695504 -0.1303987473 -0.7121036777
 H  1.6280525888  0.1733736388  1.5464704346
 H  1.4584294466  1.3156763696  0.2910913874
 H  1.6552567566 -0.3696562250 -0.1443288734
 H -0.4501398305  0.5918625285 -1.4588943202
 H -0.5625428361 -1.1209181449 -1.0692610045
 H -1.8057108554 -0.0506904064 -0.5575548486
9
step 72
 O -0.2323709163  0.0905482554  0.6259838443
 C  1.1954797520  0.3169658976  0.5711301659