9
step 0
 O -0.2710284980  0.0764101833  0.5322756597
 C  1.1465127853  0.0183024138  0.3262148898
 C -0.9437183999 -0.0755356040 -0.7245700467
 H  1.6237389891  0.1370800837  1.3005296653
 H  1.4990928841  0.8178281174 -0.3335322260
 H  1.4609104580 -0.9397328763 -0.1005675513
 H -0.6816993748  0.7199297838 -1.4298367951
 H -0.7199137364 -1.0376339707 -1.1969034846
 H -2.0163951026 -0.0263481323 -0.5294101207
9
step 1
 O -0.2690668346  0.0761039377  0.5329932508
 C  1.1458185121  0.0233359016  0.3312992624
 C -0.9410366374 -0.0758221942 -0.7246942887
 H  1.6357418025  0.1260358315  1.3082856800
 H  1.4903350277  0.8249175333 -0.3383301451
 H  1.4529015831 -0.9322551913 -0.1043204764
 H -0.6778733893  0.7139897889 -1.4334332752
 H -0.7124724380 -1.0432302953 -1.1981630027
 H -2.0268476212 -0.0227753136 -0.5294370148
9
step 2
 O -0.2671408443  0.0758072797  0.5337260436
 C  1.1451742050  0.0283678864  0.3363535202
 C -0.9384457185 -0.0761608010 -0.7248102545
 H  1.6472980579  0.1152041473  1.3154180557
 H  1.4816415320  0.8317195457 -0.3425789447
 H  1.4450570605 -0.9248876317 -0.1081172304
 H -0.6739951960  0.7082741333 -1.4370698220
 H -0.7052888811 -1.0483105781 -1.1991083628
 H -2.0359000516 -0.0193435160 -0.5296982836
9
step 3
 O -0.2652832142  0.0755288161  0.5344898169
 C  1.1446258866  0.0333985728  0.3413535672
 C -0.9360156269 -0.0765959859 -0.7249113952
 H  1.6580025097  0.1047888045  1.3213786164
 H  1.4730859397  0.8379999136 -0.3457849551
 H  1.4375253502 -0.9177053472 -0.1119954100
 H -0.6700151309  0.7029700476 -1.4407761613
 H -0.6985867284 -1.0524398509 -1.1994701331
 H -2.0423920412 -0.0161785100 -0.5303844335
9
step 4
 O -0.2635258758  0.0752766622  0.5352998021
 C  1.1442126090  0.0384193143  0.3462709621
 C -0.9337917177 -0.0771598958 -0.7249939297
 H  1.6675084357  0.0949968121  1.3257443492
 H  1.4647691323  0.8435985885 -0.3475332774
 H  1.4304458926 -0.9107483640 -0.1159727580
 H -0.6658994225  0.6982166598 -1.4445488000
 H -0.6925543841 -1.0552982431 -1.1990411032
 H -2.0454795835 -0.0133879784 -0.5316268820
9
step 5
 O -0.2618993389  0.0750583162  0.5361705171
 C  1.1439635097  0.0434111731  0.3510719368
 C -0.9317914232 -0.0778692155 -0.7250571112
 H  1.6755530067  0.0860315420  1.3282557110
 H  1.4568220710  0.8484501388 -0.3475122155
 H  1.4239465411 -0.9040164112 -0.1200441441
 H -0.6616343190  0.6940917351 -1.4483412995
 H -0.6873351332 -1.0567087127 -1.1976908883
 H -2.0446806620 -0.0110560507 -0.5334919821
9
step 6
 O -0.2604320419  0.0748805453  0.5371155853
 C  1.1438958041  0.0483448810  0.3557172543
 C -0.9300031929 -0.0787238801 -0.7251030625
 H  1.6819745322  0.0780845148  1.3288381500
 H  1.4494045386  0.8525942425 -0.3455284555
 H  1.4181424460 -0.8974698478 -0.1241816638
 H -0.6572274254  0.6906072422 -1.4520618096
 H -0.6830208790 -1.0566512318 -1.1953735414
 H -2.0398942894 -0.0092393206 -0.5359798206
9
step 7
 O -0.2591497274  0.0747492890  0.5381475256
 C  1.1440137087  0.0531820517  0.3601628107
 C -0.9283869073 -0.0797075181 -0.7251362169
 H  1.6867215719  0.0713268299  1.3276086867
 H  1.4427004288  0.8561768729 -0.3415132312
 H  1.4131362109 -0.8910363383 -0.1283378817
 H -0.6527060700  0.6877139629 -1.4555785260
 H -0.6796491302 -1.0552646194 -1.1921288378
 H -2.0314024970 -0.0079637753 -0.5390259307
9
step 8
 O -0.2580748473  0.0746695823  0.5392775035
 C  1.1443083185  0.0578774621  0.3643608890
 C -0.9268755611 -0.0807894842 -0.7251624317
 H  1.6898538539  0.0659010147  1.3248688288
 H  1.4369100173  0.8594426846 -0.3355196605
 H  1.4090189382 -0.8846220763 -0.1324517867
 H -0.6481129153  0.6853139558 -1.4587323239
 H -0.6772031051 -1.0528366630 -1.1880775863
 H -2.0198574850 -0.0072225429 -0.5425054396
9
step 9
 O -0.2572260015  0.0746455008  0.5405150474
 C  1.1447585209  0.0623822191  0.3682620219
 C -0.9253786095 -0.0819282688 -0.7251878688
 H  1.6915344083  0.0619139734  1.3210837531
 H  1.4322395110  0.8627186771 -0.3277111023
 H  1.4058717102 -0.8781258027 -0.1364566622
 H -0.6434993714  0.6832786445 -1.4613546328
 H -0.6756151610 -1.0497823464 -1.1834108862
 H -2.0062483323 -0.0069750375 -0.5462405193
9
step 10
 O -0.2566174275  0.0746801311  0.5418677412
 C  1.1453330673  0.0666476206  0.3718174533
 C -0.9237878499 -0.0830760021 -0.7252177274
 H  1.6920118622  0.0594317354  1.3168465790
 H  1.4288881451  0.8663889524 -0.3183402569
 H  1.4037671001 -0.8714536629 -0.1402888528
 H -0.6389176043  0.6814698057 -1.4632879065
 H -0.6747739883 -1.0466095846 -1.1783730667
 H -1.9918354587 -0.0071487516 -0.5500129973
9
step 11
 O -0.2562585616  0.0747755651  0.5433409095
 C  1.1459938799  0.0706294855  0.3749821955
 C -0.9219868510 -0.0841836937 -0.7252548812
 H  1.6915920528  0.0584766700  1.3128266454
 H  1.4270332586  0.8708606888 -0.3077192743
 H  1.4027704128 -0.8645330478 -0.1438963285
 H -0.6344120569  0.6797607283 -1.4644058902
 H -0.6745358788 -1.0438724423 -1.1732384106
 H -1.9780393916 -0.0076452842 -0.5535841556
9
step 12
 O -0.2561537005  0.0749329189  0.5449373166
 C  1.1467005065  0.0742926610  0.3777186073
 C -0.9198644097 -0.0852067494 -0.7252984696
 H  1.6905995053  0.0590275846  1.3097026646
 H  1.4268141238  0.8765225796 -0.2961825660
 H  1.4029404611 -0.8573238488 -0.1472460021
 H -0.6300114478  0.6780551233 -1.4646311555
 H -0.6747397657 -1.0421136674 -1.1682827829
 H -1.9662773309 -0.0083517090 -0.5567224944
9
step 13
 O -0.2563017890  0.0751523670  0.5466568990
 C  1.1474153501  0.0776153166  0.3800002689
 C -0.9173310546 -0.0861102301 -0.7253425840
 H  1.6893319755  0.0610225589  1.3080855814
 H  1.4283157661  0.8836989014 -0.2840461563
 H  1.4043297258 -0.8498259101 -0.1503288837
 H -0.6257222468  0.6763017560 -1.4639478622
 H -0.6752246688 -1.0418013110 -1.1637528002
 H -1.9577593604 -0.0091566984 -0.5592371918
9
step 14
 O -0.2566963537  0.0754331847  0.5484965561
 C  1.1481089674  0.0805925395  0.3818157051
 C -0.9143355181 -0.0868732974 -0.7253753772
 H  1.6880145596  0.0643636345  1.3084409637
 H  1.4315544963  0.8926046231 -0.2715695336
 H  1.4069837352 -0.8420817750 -0.1531623379
 H -0.6215246294  0.6745031308 -1.4624082057
 H -0.6758470203 -1.0432674151 -1.1598366850
 H -1.9532822076 -0.0099682095 -0.5610108664
9
step 15
 O -0.2573255930  0.0757737873  0.5504500294
 C  1.1487644846  0.0832386908  0.3831713085
 C -0.9108765046 -0.0874923115 -0.7253790657
 H  1.6867623592  0.0689219558  1.3110246799
 H  1.4364672237  0.9033086972 -0.2589269977
 H  1.4109394572 -0.8341740977 -0.1557889158
 H -0.6173718136  0.6727168800 -1.4601314589
 H -0.6764946366 -1.0466589156 -1.1566417458
 H -1.9530780019 -0.0107274532 -0.5620223918
9
step 16
 O -0.2581726295  0.0761717615  0.5525079070
 C  1.1493801886  0.0855880072  0.3840927565
 C -0.9070055400 -0.0879820865 -0.7253311925
 H  1.6855606280  0.0745420525  1.3158458886
 H  1.4429066586  0.9157128709 -0.2461944889
 H  1.4162225244 -0.8262173987 -0.1582714943
 H -0.6131933697  0.6710489555 -1.4572949905
 H -0.6770943837 -1.0519106634 -1.1541828986
 H -1.9567699848 -0.0114142394 -0.5623517981
9
step 17
 O -0.2592159202  0.0766238934  0.5546577826
 C  1.1499696893  0.0876931003  0.3846244122
 C -0.9028195973 -0.0883748778 -0.7252071173
 H  1.6842678441  0.0810447530  1.3226665394
 H  1.4506440332  0.9295513610 -0.2333546936
 H  1.4228432345 -0.8183443448 -0.1606848192
 H -0.6089025173  0.6696384748 -1.4541173347
 H -0.6776119943 -1.0587471038 -1.1523846486
 H -1.9634516526 -0.0120421471 -0.5621652794
9
step 18
 O -0.2604298109  0.0771262035  0.5568845805
 C  1.1505596389  0.0896213040  0.3848266187
 C -0.8984459742 -0.0887169129 -0.7249832292
 H  1.6826412175  0.0882292868  1.3310378469
 H  1.4593799205  0.9444127825 -0.2203188147
 H  1.4307915020 -0.8106875398 -0.1631040613
 H -0.6044066946  0.6686352459 -1.4508344314
 H -0.6780445786 -1.0667132786 -1.1510959953
 H -1.9718598300 -0.0126462738 -0.5616856622
9
step 19
 O -0.2617852094  0.0776740011  0.5591710253
 C  1.1511855891  0.0914492286  0.3847712889
 C -0.8940241383 -0.0890627428 -0.7246401507
 H  1.6803782936  0.0958757983  1.3403651694
 H  1.4687622964  0.9597810483 -0.2069594955
 H  1.4400312149 -0.8033588543 -0.1655916387
 H -0.5996199957  0.6681724972 -1.4476715261
 H -0.6784082391 -1.0752293888 -1.1501148927
 H -1.9805847992 -0.0132686709 -0.5611577739
9
step 20
 O -0.2632503428  0.0782619688  0.5614982134
 C  1.1518869169  0.0932562535  0.3845365431
 C -0.8896889659 -0.0894682468 -0.7241653006
 H  1.6771651311  0.1037493717  1.3499872448
 H  1.4784096472  0.9750882983 -0.1931474875
 H  1.4504947429 -0.7964293335 -0.1681841835
 H -0.5944756080  0.6683388175 -1.4448145944
 H -0.6787240611 -1.0836586405 -1.1492172561
 H -1.9882641419 -0.0139459022 -0.5608172498
9
step 21
 O -0.2647915537  0.0788842751  0.5638462230
 C  1.1527017473  0.0951178960  0.3842012459
 C -0.8855578859 -0.0899834843 -0.7235544421
 H  1.6727219030  0.1116059595  1.3592554716
 H  1.4879361752  0.9897715028 -0.1787852062
 H  1.4620785654 -0.7899132387 -0.1708819012
 H -0.5889362685  0.6691542317 -1.4423860116
 H -0.6790054107 -1.0913770016 -1.1481855312
 H -1.9937303510 -0.0147007892 -0.5608673938
9
step 22
 O -0.2663740928  0.0795347122  0.5661947011
 C  1.1536625283  0.0970999557  0.3838401611
 C -0.8817224452 -0.0906465791 -0.7228120899
 H  1.6668396987  0.1191998191  1.3676026957
 H  1.4969762091  1.0033253460 -0.1638325874
 H  1.4746410581 -0.7837594768 -0.1736424519
 H -0.5830010285  0.6705551775 -1.4404289797
 H -0.6792483406 -1.0978356090 -1.1468331763
 H -1.9961068550 -0.0155381991 -0.5614647586
9
step 23
 O -0.2679628709  0.0802068443  0.5685233778
 C  1.1547925658  0.0992540794  0.3835201716
 C -0.8782435932 -0.0914794806 -0.7219508150
 H  1.6594058839  0.1262916234  1.3745961376
 H  1.5052056301  1.0153464041 -0.1483233556
 H  1.4880033268 -0.7778524694 -0.1763808205
 H -0.5767072338  0.6723917107 -1.4389037689
 H -0.6794256644 -1.1026103021 -1.1450232040
 H -1.9948619409 -0.0164436187 -0.5627118043
9
step 24
 O -0.2695231495  0.0808941561  0.5708124836
 C  1.1561035539  0.1016150487  0.3832977404
 C -0.8751496173 -0.0924859570 -0.7209896141
 H  1.6504180954  0.1326563969  1.3799733088
 H  1.5123590495  1.0255662342 -0.1323718917
 H  1.5019535887 -0.7720227369 -0.1789755704
 H -0.5701274638  0.6744378881 -1.4376964733
 H -0.6794843937 -1.1054363079 -1.1426804254
 H -1.9898340929 -0.0173831655 -0.5646544034
9
step 25
 O -0.2710211610  0.0815901886  0.5730430700
 C  1.1575940289  0.1041997837  0.3832175817
 C -0.8724358635 -0.0936517413 -0.7199516068
 H  1.6399882270  0.1380906758  1.3836619227
 H  1.5182422240  1.0338728059 -0.1161719094
 H  1.5162550641 -0.7660656736 -0.1812807349
 H -0.5633619942  0.6764137024 -1.4366384860
 H -0.6793458983 -1.1062283070 -1.1397978156
 H -1.9812390625 -0.0183041463 -0.5672824828
9
step 26
 O -0.2724246640  0.0822886561  0.5751972522
 C  1.1592486972  0.1070078787  0.3833124253
 C -0.8700658694 -0.0949464856 -0.7188613867
 H  1.6283378086  0.1424185631  1.3857849402
 H  1.5227395341  1.0403203566 -0.0999882449
 H  1.5306567826 -0.7597656763 -0.1831417039
 H -0.5565279482  0.6780149959 -1.4355330853
 H -0.6789082422 -1.1050867154 -1.1364375066
 H -1.9696622519 -0.0191359272 -0.5705331029
9
step 27
 O -0.2737034379  0.0829835421  0.5772584048
 C  1.1610386824  0.1100234561  0.3836037741
 C -0.8679741323 -0.0963270979 -0.7177423445
 H  1.6157855899  0.1454965215  1.3866507416
 H  1.5258162903  1.0451274234 -0.0841426551
 H  1.5449062850 -0.7529222500 -0.1844130214
 H -0.5497465532  0.6789469315 -1.4341848425
 H -0.6780504585 -1.1022904475 -1.1327265518
 H -1.9560322690 -0.0197915437 -0.5742963598
9
step 28
 O -0.2748297150  0.0836691711  0.5792113316
 C  1.1629228243  0.1132181871  0.3841036308
 C -0.8660712854 -0.0977420860 -0.7166142174
 H  1.6027275674  0.1472168099  1.3867270188
 H  1.5275153664  1.0486620243 -0.0689940785
 H  1.5587629736 -0.7453748791 -0.1849760057
 H -0.5431298817  0.6789568098 -1.4324279203
 H -0.6766388585 -1.0982754779 -1.1288471573
 H -1.9415648049 -0.0201710689 -0.5784253164
9
step 29
 O -0.2757785384  0.0843402578  0.5810424243
 C  1.1648501608  0.1165553993  0.3848172266
 C -0.8642527126 -0.0991366045 -0.7154910415
 H  1.5896096769  0.1475095181  1.3865964488
 H  1.5279474997  1.0514124662 -0.0549136982
 H  1.5720108289 -0.7370240532 -0.1847543914
 H -0.5367682719  0.6778628618 -1.4301503006
 H -0.6745356640 -1.0935980511 -1.1250208843
 H -1.9276630263 -0.0201681341 -0.5827513331
9
step 30
 O -0.2765280252  0.0849919322  0.5827398052
 C  1.1667636083  0.1199951685  0.3857467356
 C -0.8624112712 -0.1004579163 -0.7143796465
 H  1.5768942143  0.1463433086  1.3868935504
 H  1.5272748883  1.0539427834 -0.0422555745
 H  1.5844693003 -0.7278465564 -0.1837265674
 H -0.5307194760  0.6755765902 -1.4273120061
 H -0.6716101837 -1.0888821800 -1.1214866835
 H -1.9157653971 -0.0196808580 -0.5871051823
9
step 31
 O -0.2770595181  0.0856197414  0.5842934461
 C  1.1686046156  0.1235001204  0.3868957374
 C -0.8604534889 -0.1016609219 -0.7132788849
 H  1.5650226667  0.1437252638  1.3882258957
 H  1.5256886764  1.0568338878 -0.0313245924
 H  1.5960013194 -0.7179037223 -0.1819333053
 H -0.5250005792  0.6721169252 -1.4239561073
 H -0.6677523383 -1.0847535306 -1.1184736631
 H -1.9071477561 -0.0186273564 -0.5913419567
9
step 32
 O -0.2773576310  0.0862196323  0.5856952561
 C  1.1703182674  0.1270413566  0.3882738255
 C -0.8583165111 -0.1027132815 -0.7121798942
 H  1.5543794739  0.1397005324  1.3910885352
 H  1.5233825093  1.0606151487 -0.0223447715
 H  1.6065175462 -0.7073417433 -0.1794800781
 H -0.5195838375  0.6676147570 -1.4202115913
 H -0.6628875823 -1.0817656868 -1.1161711122
 H -1.9027118467 -0.0169638280 -0.5953646340
9
step 33
 O -0.2774102189  0.0867879237  0.5869391521
 C  1.1718580810  0.1306035811  0.3899003914
 C -0.8559812112 -0.1035995261 -0.7110677092
 H  1.5452623564  0.1343524922  1.3957860788
 H  1.5205260930  1.0656954202 -0.0154321483
 H  1.6159761250 -0.6963833446 -0.1765332094
 H -0.5143976504  0.6623064643 -1.4162871446
 H -0.6569913234 -1.0803289981 -1.1147000250
 H -1.9028152736 -0.0147006789 -0.5991391641
9
step 34
 O -0.2772083196  0.0873212847  0.5880211326
 C  1.1731896976  0.1341883262  0.3918064810
 C -0.8534768251 -0.1043234483 -0.7099243304
 H  1.5378643279  0.1278036705  1.4023792312
 H  1.5172437700  1.0723057205 -0.0105768592
 H  1.6243774463 -0.6853104151 -0.1733092973
 H -0.5093336811  0.6565152255 -1.4124549140
 H -0.6501001738 -1.0806548405 -1.1140914333
 H -1.9071991076 -0.0119110259 -0.6026953528
9
step 35
 O -0.2767461131  0.0878167321  0.5889393784
 C  1.1742929015  0.1378143424  0.3940339098
 C -0.8508750446 -0.1049080654 -0.7087329136
 H  1.5322701316  0.1202167977  1.4106691380
 H  1.5136027092  1.0804657413 -0.0076381938
 H  1.6317537624 -0.6744378293 -0.1700578389
 H -0.5042604760  0.6506197074 -1.4090238346
 H -0.6423172814 -1.0827272013 -1.1142764493
 H -1.9150395258 -0.0087277488 -0.6061128776
9
step 36
 O -0.2760209161  0.0882716560  0.5896943812
 C  1.1751618243  0.1415147699  0.3966315122
 C -0.8482754382 -0.1053926883 -0.7074823171
 H  1.5284664076  0.1117946017  1.4202238785
 H  1.5096131595  1.0899820939 -0.0063541797
 H  1.6381541443 -0.6640799711 -0.1670379079
 H -0.4990427954  0.6450116036 -1.4063035658
 H -0.6338099135 -1.0863083066 -1.1150907387
 H -1.9251035252 -0.0053295044 -0.6094975957
9
step 37
 O -0.2750332092  0.0886838730  0.5902890803
 C  1.1758036179  0.1453315054  0.3996492092
 C -0.8457868852 -0.1058272205 -0.7061710951
 H  1.5263618753  0.1027768480  1.4304404313
 H  1.5052400567  1.1004787161 -0.0063642944
 H  1.6436262568 -0.6545133042 -0.1644910621
 H -0.4935644459  0.6400463941 -1.4045624907
 H -0.6247992138 -1.0909769712 -1.1162927862
 H -1.9359553649 -0.0019200920 -0.6129561003
9
step 38
 O -0.2737866751  0.0890516924  0.5907289756
 C  1.1762361273  0.1493079080  0.4031311411
 C -0.8435099367 -0.1062645942 -0.7048101951
 H  1.5258124041  0.0934338038  1.4406273945
 H  1.5004224601  1.1114521947 -0.0072412759
 H  1.6481976235 -0.6459401877 -0.1626140370
 H -0.4877510778  0.6359947789 -1.4039859654
 H -0.6155438997 -1.0961907067 -1.1175921225
 H -1.9461575022  0.0012931365 -0.6165750795
9
step 39
 O -0.2722882389  0.0893739812  0.5910221881
 C  1.1764850774  0.1534813519  0.4071092213
 C -0.8415232570 -0.1067528684 -0.7034239207
 H  1.5266462597  0.0840563555  1.4500916777
 H  1.4950959719  1.1223400557 -0.0085267316
 H  1.6518599794 -0.6384601220 -0.1615356053
 H -0.4815886792  0.6330040169 -1.4046428338
 H -0.6063207958 -1.1013585045 -1.1186819735
 H -1.9544304813  0.0041175917 -0.6204084035
9
step 40
 O -0.2705481079  0.0896502124  0.5911794579
 C  1.1765811073  0.1578770289  0.4115981592
 C -0.8398751050 -0.1073286086 -0.7020490096
 H  1.5286863844  0.0749438243  1.4582157755
 H  1.4892137319  1.1325897407 -0.0097656200
 H  1.6545603907 -0.6320539764 -0.1613017427
 H -0.4751338368  0.6310774951 -1.4064678367
 H -0.5974051380 -1.1059117316 -1.1192710234
 H -1.9597618202  0.0063888312 -0.6244716151
9
step 41
 O -0.2685798178  0.0898804874  0.5912140813
 C  1.1765567955  0.1625039152  0.4165924943
 C -0.8385792899 -0.1080126864 -0.7007319335
 H  1.5317683196  0.0663907964  1.4645181401
 H  1.4827631181  1.1417191006 -0.0105362290
 H  1.6562017206 -0.6265844002 -0.1618717912
 H -0.4685133901  0.6300769864 -1.4092644721
 H -0.5890527701 -1.1093644291 -1.1191106008
 H -1.9614711951  0.0079794192 -0.6287418690
9
step 42
 O -0.2664002872  0.0900655297  0.5911417998
 C  1.1764437376  0.1673531921  0.4220657081
 C -0.8376144015 -0.1088088584 -0.6995247750
 H  1.5357536547  0.0586740804  1.4686945420
 H  1.4757770022  1.1493635973 -0.0104741162
 H  1.6566529702 -0.6218122603 -0.1631260890
 H -0.4619134453  0.6297465692 -1.4127280410
 H -0.5814852588 -1.1113590801 -1.1180155723
 H -1.9592453104  0.0088045880 -0.6331611746
9
step 43
 O -0.2640298689  0.0902066516  0.5909806528
 C  1.1762697710  0.1723988799  0.4279711644
 C -0.8369251706 -0.1097047570 -0.6984802479
 H  1.5405394439  0.0520405430  1.4706414541
 H  1.4683396195  1.1553090449 -0.0092898956
 H  1.6557677743 -0.6174257949 -0.1648833148
 H -0.4555599754  0.6297523450 -1.4164840098
 H -0.5748780866 -1.1116975913 -1.1158787266
 H -1.9531537842  0.0088259461 -0.6376413453
9
step 44
 O -0.2614923680  0.0903057023  0.5907508023
 C  1.1760565347  0.1776001511  0.4342445229
 C -0.8364252709 -0.1106745294 -0.6976465317
 H  1.5460639698  0.0466963392  1.4704632499
 H  1.4605876336  1.1595106686 -0.0067813863
 H  1.6534077329 -0.6130772549 -0.1669243097
 H -0.4496945568  0.6297297302 -1.4201342441
 H -0.5693516986 -1.1103589540 -1.1126790963
 H -1.9436509893  0.0080537739 -0.6420697744
9
step 45
 O -0.2588149873  0.0903650053  0.5904743264
 C  1.1758176313  0.1829047398  0.4408073250
 C -0.8360015350 -0.1116823203 -0.6970625397
 H  1.5523087647  0.0427980799  1.4684641228
 H  1.4527069487  1.1620995250 -0.0028405346
 H  1.6494667433 -0.6084214863 -0.1690187006
 H -0.4445489059  0.6293305637 -1.4233036878
 H -0.5649653004 -1.1075049646 -1.1084846016
 H -1.9315607507  0.0065474478 -0.6463157486
9
step 46
 O -0.2560281526  0.0903872922  0.5901749688
 C  1.1755576862  0.1882529955  0.4475715634
 C -0.8355202318 -0.1126860089 -0.6967540982
 H  1.5592961687  0.0404467250  1.4651242170
 H  1.4449255453  1.1633764925  0.0025450695
 H  1.6438929710 -0.6031518435 -0.1709510905
 H -0.4403210821  0.6282645653 -1.4256819478
 H -0.5617137696 -1.1034741376 -1.1034489057
 H -1.9180330789  0.0044125243 -0.6502373468
9
step 47
 O -0.2531651810  0.0903756430  0.5898778208
 C  1.1752725758  0.1935823157  0.4544451233
 C -0.8348364917 -0.1136409078 -0.6967313353
 H  1.5670812010  0.0396852457  1.4610586427
 H  1.4375023737  1.1637928897  0.0092969544
 H  1.6367061128 -0.5970302923 -0.1725444315
 H -0.4371551559  0.6263323366 -1.4270566709
 H -0.5595286329 -1.0987623797 -1.0978018411
 H -1.9044573055  0.0017923786 -0.6536890606
9
step 48
 O -0.2502617779  0.0903334343  0.5896089142
 C  1.1749510074  0.1988318438  0.4613379195
 C -0.8338077958 -0.1145034074 -0.6969874389
 H  1.5757364574  0.0405010638  1.4569587963
 H  1.4307123168  1.1639161182  0.0172580645
 H  1.6280086751 -0.5899099230 -0.1736790205
 H -0.4351253405  0.6234490058 -1.4273374914
 H -0.5582844626 -1.0939879157 -1.0918325542
 H -1.8923182614 -0.0011473571 -0.6565301276
9
step 49
 O -0.2473553807  0.0902643035  0.5893947070
 C  1.1745774808  0.2039473776  0.4681683348
 C -0.8323112772 -0.1152347557 -0.6974988486
 H  1.5853295064  0.0428336609  1.4535183016
 H  1.4248275401  1.1643792871  0.0262135115
 H  1.6179908123 -0.5817489670 -0.1743060673
 H -0.4342253073  0.6196583679 -1.4265701789
 H -0.5578119011 -1.0898381903 -1.0858649399
 H -1.8829962414 -0.0042413465 -0.6586332929
9
step 50
 O -0.2444843987  0.0901721269  0.5892614620
 C  1.1741364231  0.2088863596  0.4748692438
 C -0.8302623960 -0.1158052350 -0.6982268753
 H  1.5958940344  0.0465864833  1.4513506343
 H  1.4200961575  1.1658160535  0.0359193518
 H  1.6069287302 -0.5726157537 -0.1744549279
 H -0.4343636217  0.6151370243 -1.4249404369
 H -0.5579175266 -1.0869987353 -1.0802261777
 H -1.8775380622 -0.0073503375 -0.6598934038
9
step 51
 O -0.2416874085  0.0900610119  0.5892345406
 C  1.1736169953  0.2136226223  0.4813926449
 C -0.8276302431 -0.1161988209 -0.6991206774
 H  1.6073985780  0.0516407256  1.4509106024
 H  1.4167199708  1.1687858857  0.0461366949
 H  1.5951767837 -0.5626839678 -0.1742329595
 H -0.4353666971  0.6101870128 -1.4227659292
 H -0.5584088283 -1.0860686186 -1.0752111894
 H -1.8764552429 -0.0103829210 -0.6602349994
9
step 52
 O -0.2390023540  0.0899352960  0.5893376537
 C  1.1730177952  0.2181502713  0.4877119000
 C -0.8244440811 -0.1164178407 -0.7001214448
 H  1.6197191479  0.0578675375  1.4524347709
 H  1.4148338638  1.1736997013  0.0566658737
 H  1.5831533357 -0.5522173916 -0.1738167550
 H -0.4369909282  0.6052143928 -1.4204741451
 H -0.5591201373 -1.0874734057 -1.0710481158
 H -1.8796151163 -0.0133054350 -0.6596179062
9
step 53
 O -0.2364657609  0.0897995381  0.5895921285
 C  1.1723505623  0.2224858225  0.4938209295
 C -0.8207880568 -0.1164863343 -0.7011675539
 H  1.6326229949  0.0651354710  1.4559142099
 H  1.4144899398  1.1807593965  0.0673737316
 H  1.5713204720 -0.5415434762 -0.1734335988
 H -0.4389452016  0.6006911924 -1.4185635903
 H -0.5599335943 -1.0913922066 -1.0678714297
 H -1.8862653661 -0.0161363174 -0.6580398681
9
step 54
 O -0.2341119531  0.0896584901  0.5900162557
 C  1.1716421166  0.2266676846  0.4997303519
 C -0.8167854242 -0.1164503064 -0.7022003410
 H  1.6457690997  0.0733117308  1.4611060744
 H  1.4156493100  1.1899247502  0.0782075705
 H  1.5601581205 -0.5310161210 -0.1733327896
 H -0.4409233364  0.5971000925 -1.4175475807
 H -0.5607895071 -1.0977167229 -1.0657088545
 H -1.8951817324 -0.0189279809 -0.6555355735
9
step 55
 O -0.2319722449  0.0895170370  0.5906247745
 C  1.1709341373  0.2307524586  0.5054612696
 C -0.8125773182 -0.1163735303 -0.7031699751
 H  1.6587269028  0.0822581936  1.4675808191
 H  1.4181833563  1.2009162391  0.0891923872
 H  1.5501341637 -0.5209702297 -0.1737483048
 H -0.4426431855  0.5948657952 -1.4178842883
 H -0.5616833113 -1.1060545477 -1.0644852580
 H -1.9048850014 -0.0217440033 -0.6521721503
9
step 56
 O -0.2300741124  0.0893801044  0.5914285391
 C  1.1702808491  0.2348083220  0.5110379149
 C -0.8083019660 -0.1163290695 -0.7040406867
 H  1.6710100113  0.0918249506  1.4747934870
 H  1.4218844938  1.2132536435  0.1004126738
 H  1.5416735231 -0.5116736050 -0.1748570096
 H -0.4438858917  0.5942832883 -1.4199029032
 H -0.5626506666 -1.1157774042 -1.0640421215
 H -1.9138626250 -0.0246393040 -0.6480420317
9
step 57
 O -0.2284403724  0.0892525415  0.5924343782
 C  1.1697450604  0.2389066487  0.5164805323
 C -0.8040784701 -0.1163884498 -0.7047944229
 H  1.6821182814  0.1018444547  1.4821638220
 H  1.4264845731  1.2263215674  0.1119841411
 H  1.5351303137 -0.5032843791 -0.1767393771
 H -0.4445267442  0.5954583806 -1.4237411574
 H -0.5637457455 -1.1261027721 -1.0641671894
 H -1.9207499104 -0.0276473290 -0.6432545828
9
step 58
 O -0.2270884214  0.0891389927  0.5936451307
 C  1.1693931652  0.2431135540  0.5217997039
 C -0.7999966907 -0.1166113591 -0.7054320337
 H  1.6915809402  0.1121283917  1.4891515264
 H  1.4316778202  1.2394479180  0.1240224733
 H  1.5307672855 -0.4958228590 -0.1793510843
 H -0.4445499047  0.5982762478 -1.4293102803
 H -0.5650187980 -1.1361903569 -1.0646273402
 H -1.9244549831 -0.0307743439 -0.6379278048
9
step 59
 O -0.2260295900  0.0890437749  0.5950598105
 C  1.1692897100  0.2474829726  0.5269929152
 C -0.7961127004 -0.1170383569 -0.7059715129
 H  1.6989949263  0.1224679645  1.4953177888
 H  1.4371449935  1.2519814949  0.1366153171
 H  1.5287455570 -0.4891643819 -0.1825126428
 H -0.4440434033  0.6024074514 -1.4362975901
 H -0.5664976494 -1.1452354211 -1.0651988195
 H -1.9242332967 -0.0339987627 -0.6321809095
9
step 60
 O -0.2252686567  0.0889707740  0.5966738426
 C  1.1694920412  0.2520522489  0.5320436345
 C -0.7924482624 -0.1176876939 -0.7064435525
 H  1.7040550772  0.1326371796  1.5003694349
 H  1.4425760858  1.2633588103  0.1498012641
 H  1.5291254471 -0.4830549576 -0.1859203534
 H -0.4431765958  0.6073501485 -1.4442062562
 H -0.5681752778 -1.1525469661 -1.0656915003
 H -1.9197262424 -0.0372731272 -0.6261279374
9
step 61
 O -0.2248035462  0.0889233726  0.5984793206
 C  1.1700454611  0.2568403867  0.5369226817
 C -0.7889926577 -0.1185558493 -0.7068853660
 H  1.7065748778  0.1423982771  1.5041856987
 H  1.4476899295  1.2731553813  0.1635570499
 H  1.5318769005 -0.4771460154 -0.1891767269
 H -0.4421668320  0.6124973294 -1.4524215325
 H -0.5700034464 -1.1576059442 -1.0659662835
 H -1.9109773169 -0.0405270625 -0.6198721589
9
step 62
 O -0.2246252252  0.0889044108  0.6004652449
 C  1.1709792641  0.2618484672  0.5415913459
 C -0.7857056915 -0.1196205028 -0.7073340515
 H  1.7064975690  0.1515085364  1.5068290311
 H  1.4522499748  1.2811207424  0.1777925351
 H  1.5368964771 -0.4710407413 -0.1918342744
 H -0.4412434093  0.6172135282 -1.4602878208
 H -0.5718912254 -1.1601039126 -1.0659462247
 H -1.8984329265 -0.0436705114 -0.6135009324
9
step 63
 O -0.2247177948  0.0889161798  0.6026177277
 C  1.1723039826  0.2670614825  0.5460056409
 C -0.7825215620 -0.1208445660 -0.7078205907
 H  1.7038974980  0.1597280358  1.5085409535
 H  1.4560760213  1.2871983411  0.1923524189
 H  1.5440275232 -0.4643435048 -0.1934447492
 H -0.4406151197  0.6209073576 -1.4671823929
 H -0.5737070709 -1.1599646747 -1.0656223798
 H -1.8829265362 -0.0465974096 -0.6070810751
9
step 64
 O -0.2250587768  0.0889604387  0.6049201603
 C  1.1740101320  0.2724509469  0.5501212357
 C -0.7793541745 -0.1221803516 -0.7083650955
 H  1.6989711585  0.1668282999  1.5097226281
 H  1.4590517567  1.2915314516  0.2070237736
 H  1.5530807477 -0.4567053807 -0.1936066333
 H -0.4404445642  0.6230917186 -1.4725769764
 H -0.5752835428 -1.1573509628 -1.0650549975
 H -1.8656366772 -0.0491905999 -0.6006556392
9
step 65
 O -0.2256195877  0.0890384453  0.6073533558
 C  1.1760686829  0.2779779462  0.5538988158
 C -0.7761051150 -0.1235735631 -0.7089734013
 H  1.6920170872  0.1726019878  1.5108986478
 H  1.4611277031  1.2944550193  0.2215489110
 H  1.5638534442 -0.4478614359 -0.1920058337
 H -0.4408296829  0.6234291171 -1.4760841263
 H -0.5764243696 -1.1526561886 -1.0643699539
 H -1.8480037529 -0.0513291654 -0.5942441374
9
step 66
 O -0.2263661921  0.0891509904  0.6098956786
 C  1.1784333641  0.2835965939  0.5573097603
 C -0.7726754880 -0.1249672752 -0.7096347627
 H  1.6834043935  0.1768738128  1.5126626798
 H  1.4623188402  1.2964718893  0.2356433797
 H  1.5761465007 -0.4376578866 -0.1884468547
 H -0.4417915384  0.6217629870 -1.4774890551
 H -0.5769141030 -1.1464789542 -1.0637495767
 H -1.8315915643 -0.0528993186 -0.5878492160
9
step 67
 O -0.2272599146  0.0892984297  0.6125231731
 C  1.1810446784  0.2892580302  0.5603419300
 C -0.7689817680 -0.1263063262 -0.7103203682
 H  1.6735316595  0.1795126962  1.5156059537
 H  1.4626960687  1.2982111630  0.2490187592
 H  1.5897787968 -0.4260686931 -0.1828732610
 H -0.4432673267  0.6181367883 -1.4767687600
 H -0.5765308761 -1.1395765832 -1.0634165844
 H -1.8178918523 -0.0538092233 -0.5814724701
9
step 68
 O -0.2282583873  0.0894807048  0.6152097072
 C  1.1838351992  0.2949150653  0.5630050426
 C -0.7649736470 -0.1275425181 -0.7109826916
 H  1.6627810907  0.1804447141  1.5202344258
 H  1.4623711004  1.3003673923  0.2614092393
 H  1.6045985485 -0.4132015020 -0.1753767818
 H -0.4451084595  0.6128014314 -1.4740992896
 H -0.5750626051 -1.1327946210 -1.0636101183
 H -1.8080953965 -0.0540064161 -0.5751392833
9
step 69
 O -0.2293166257  0.0896973777  0.6179272802
 C  1.1867353631  0.3005273982  0.5653346091
 C -0.7606493234 -0.1286407705 -0.7115562554
 H  1.6514761648  0.1796658443  1.5268865044
 H  1.4614760680  1.3036224940  0.2725993411
 H  1.6204903583 -0.3992928115 -0.1661942508
 H -0.4470846466  0.6062091859 -1.4698498137
 H -0.5723263107 -1.1269733601 -1.0645544405
 H -1.8028826672 -0.0534940797 -0.5689272560
9
step 70
 O -0.2303881027  0.0899475815  0.6206460966
 C  1.1896789632  0.3060664980  0.5673934107
 C -0.7560627597 -0.1295852178 -0.7119608565
 H  1.6398513164  0.1772518849  1.5356684037
 H  1.4601380445  1.3085580825  0.2824509865
 H  1.6373777986 -0.3846895680 -0.1556905699
 H -0.4488967687  0.5989891225 -1.4645585821
 H -0.5681883399 -1.1228388630 -1.0664218429
 H -1.8022999130 -0.0523412912 -0.5629877219
9
step 71
 O -0.2314259397  0.0902300253  0.6233351396
 C  1.1926073309  0.3115196531  0.5692690594
 C -0.7513190336 -0.1303841577 -0.7121081712
 H  1.6280419918  0.1733638974  1.5464229982
 H  1.4584562332  1.3155712701  0.2909226586
 H  1.6552174142 -0.3698184005 -0.1443269538
 H -0.4501997662  0.5918985669 -1.4588861193
 H -0.5625827961 -1.1208970656 -1.0692974253
 H -1.8057660660 -0.0506823298 -0.5575497092
9
step 72
 O -0.2323840717  0.0905429870  0.6259628495
 C  1.1954719378  0.3168916240  0.5710674901