24
step 0
 C  2.0460868101  0.0000114245  0.0000080403
 C -2.0462091220  0.0000215137  0.0001027980
 C  2.7548622919 -0.9978018137  0.6731774299
 C -2.7549239331  0.9980234843  0.6730535931
 C  2.7547943652  0.9978554351 -0.6731895636
 C -2.7549839722 -0.9979202413 -0.6728738603
 C  4.1395367527 -0.9951403620  0.6716280239
 C -4.1395961949  0.9954602674  0.6714977138
 C  4.1394677588  0.9952603831 -0.6716827033
 C -4.1396561429 -0.9952320301 -0.6713788426
 C  4.8342080903  0.0000770461 -0.0000371590
 C -4.8343347989  0.0001452731  0.0000436447
 C  0.5883538275 -0.0000215090  0.0000303952
 C -0.5884799118 -0.0000348541  0.0001237586
 H  2.2129278403 -1.7746925085  1.1975101548
 H -2.2129404396  1.7749888995  1.1972217893
 H  2.2128063685  1.7747186401 -1.1975069947
 H -2.2130478957 -1.7749356251 -1.1970164828
 H  4.6793151817 -1.7728693748  1.1967029582
 H -4.6793229957  1.7733399574  1.1964036318
 H  4.6791930826  1.7730129459 -1.1967773631
 H -4.6794295664 -1.7730647525 -1.1963061597
 H  5.9169191087  0.0001034443 -0.0000538933
 H -5.9170465054  0.0001943567  0.0000190910
24
step 1
 C  2.0485615330 -0.0005231673  0.0009621377
 C -2.0469995233  0.0053572737  0.0056580807
 C  2.7577795128 -0.9983086576  0.6730125197
 C -2.7512081698  0.9941071761  0.6751561811
 C  2.7519051641  0.9997083162 -0.6750809839
 C -2.7576348864 -0.9959438332 -0.6744328180
 C  4.1406510750 -0.9974327612  0.6701188389
 C -4.1373316682  0.9932772061  0.6707320285
 C  4.1360394044  0.9959944660 -0.6720562318
 C -4.1387922808 -1.0008879590 -0.6730161617
 C  4.8355867648 -0.0013190564 -0.0030532759
 C -4.8337755418 -0.0022728353  0.0004391331
 C  0.5918463535 -0.0019686362  0.0001579028
 C -0.5921062060 -0.0008023081 -0.0016633947
 H  2.2133571219 -1.7768160238  1.2056654342
 H -2.2073635589  1.7686997785  1.1960550903
 H  2.2149861531  1.7716069739 -1.1964763224
 H -2.2160054417 -1.7681750020 -1.2107829114
 H  4.6766793330 -1.7562005227  1.2081433649
 H -4.6747936281  1.7711894856  1.1928543107
 H  4.6668325086  1.7644304580 -1.2015115951
 H -4.6874542303 -1.7752513652 -1.1957572603
 H  5.9192567115  0.0068399808 -0.0019962054
 H -5.9115165003  0.0061910131  0.0075721380
24
step 2
 C  2.0510182794 -0.0010524113  0.0019019573
 C -2.0477862659  0.0105788412  0.0111287673
 C  2.7606497206 -0.9988578097  0.6728783612
 C -2.7475308465  0.9902432290  0.6772828722
 C  2.7490686446  1.0014890045 -0.6769189500
 C -2.7602548188 -0.9939776234 -0.6759990046
 C  4.1417582737 -0.9996348242  0.6685781032
 C -4.1350861219  0.9910564859  0.6699442643
 C  4.1325918616  0.9966479409 -0.6723980675
 C -4.1379611828 -1.0065114740 -0.6746376555
 C  4.8369385104 -0.0026931311 -0.0060706278
 C -4.8331485514 -0.0046556479  0.0008610540
 C  0.5951114166 -0.0039153390  0.0002863223
 C -0.5954895197 -0.0015615923 -0.0034390524
 H  2.2141268895 -1.7784176292  1.2134381152
 H -2.2017574659  1.7626431041  1.1950700416
 H  2.2166879189  1.7690845141 -1.1958412152
 H -2.2189722563 -1.7612244311 -1.2243034928
 H  4.6745617710 -1.7403933228  1.2199510541
 H -4.6704198926  1.7692301342  1.1894463057
 H  4.6550875439  1.7566226457 -1.2066602742
 H -4.6952532811 -1.7774256371 -1.1952180393
 H  5.9214781983  0.0134936627 -0.0039326916
 H -5.9065578875  0.0120537873  0.0150184838
24
step 3
 C  2.0534410874 -0.0015721237  0.0028146386
 C -2.0485610373  0.0155767198  0.0164344160
 C  2.7634326618 -0.9994840926  0.6728022623
 C -2.7439283042  0.9864838714  0.6794634050
 C  2.7463301653  1.0031317448 -0.6786562808
 C -2.7628163956 -0.9920293361 -0.6775822134
 C  4.1428571554 -1.0016690642  0.6669771947
 C -4.1328769424  0.9887621121  0.6691142870
 C  4.1291082863  0.9971486097 -0.6726808123
 C -4.1371940821 -1.0120756992 -0.6762291093
 C  4.8382384494 -0.0040248438 -0.0090927305
 C -4.8323930574 -0.0069718531  0.0013348552
 C  0.5979486301 -0.0058624235  0.0004161917
 C -0.5984155772 -0.0023062070 -0.0051930826
 H  2.2155243042 -1.7790579911  1.2204998063
 H -2.1961001650  1.7570269063  1.1944348120
 H  2.2174796336  1.7676789521 -1.1959573398
 H -2.2219525386 -1.7539085290 -1.2373517751
 H  4.6734118985 -1.7261765660  1.2324601592
 H -4.6663379105  1.7676268068  1.1863012791
 H  4.6445043299  1.7502764306 -1.2126043681
 H -4.7026163182 -1.7795792082 -1.1947004264
 H  5.9234745948  0.0199881714 -0.0058600987
 H -5.9026664621  0.0176631815  0.0222647454
24
step 4
 C  2.0558115375 -0.0020797039  0.0036885472
 C -2.0493089509  0.0202436238  0.0214955582
 C  2.7660948714 -1.0002112127  0.6728042973
 C -2.7404362535  0.9828853051  0.6817306046
 C  2.7437240947  1.0045840928 -0.6802547864
 C -2.7652949293 -0.9901053474 -0.6791915221
 C  4.1439563728 -1.0034776770  0.6652987179
 C -4.1307223640  0.9863651412  0.6682268268
 C  4.1255833500  0.9974415671 -0.6728877114
 C -4.1365201496 -1.0175542011 -0.6777762287
 C  4.8394631225 -0.0052948983 -0.0121226718
 C -4.8314629240 -0.0091935378  0.0018837386
 C  0.6001922013 -0.0078102967  0.0005477678
 C -0.6007052857 -0.0030306662 -0.0069155630
 H  2.2177537013 -1.7784203378  1.2266014737
 H -2.1903927400  1.7520216915  1.1942924781
 H  2.2170339923  1.7677742157 -1.1970835460
 H -2.2249313100 -1.7460918087 -1.2497267775
 H  4.6735422076 -1.7140654008  1.2458838276
 H -4.6626517298  1.7664957626  1.1835077895
 H  4.6354987279  1.7458962577 -1.2196135275
 H -4.7093499685 -1.7817114539 -1.1942226232
 H  5.9251508791  0.0262500652 -0.0077764449
 H -5.9001947357  0.0229092132  0.0292243383
24
step 5
 C  2.0581079388 -0.0025747509  0.0045138252
 C -2.0500084578  0.0244768946  0.0262353781
 C  2.7686115511 -1.0010491792  0.6728952789
 C -2.7370878861  0.9795066242  0.6841197258
 C  2.7412690937  1.0058131494 -0.6816896198
 C -2.7676693342 -0.9882094041 -0.6808341583
 C  4.1450778789 -1.0050282506  0.6635422622
 C -4.1286416206  0.9838463636  0.6672732242
 C  4.1220280344  0.9974965474 -0.6730181867
 C -4.1359652260 -1.0229205823 -0.6792643951
 C  4.8405906243 -0.0064854827 -0.0151629311
 C -4.8303319017 -0.0112973107  0.0025279266
 C  0.6017187285 -0.0097590351  0.0006811309
 C -0.6022228067 -0.0037304838 -0.0085969793
 H  2.2209168506 -1.7763383836  1.2315959798
 H -2.1846679304  1.7477462353  1.1947513967
 H  2.2151762724  1.7695424685 -1.1993353965
 H -2.2278661032 -1.7376940772 -1.2612674485
 H  4.6750767775 -1.7042990606  1.2602468134
 H -4.6594220177  1.7658863138  1.1811095949
 H  4.6283008416  1.7437235099 -1.2277820553
 H -4.7152866670 -1.7838346284 -1.1938121083
 H  5.9264339573  0.0322105824 -0.0096816801
 H -5.8992993325  0.0276900484  0.0358160431
24
step 6
 C  2.0603048883 -0.0030594151  0.0052827620
 C -2.0506320129  0.0281810771  0.0305815075
 C  2.7709677641 -1.0019931073  0.6730756509
 C -2.7339122338  0.9764079151  0.6866671949
 C  2.7389657908  1.0068088192 -0.6829516267
 C -2.7699226188 -0.9863418082 -0.6825146226
 C  4.1462575458 -1.0063150726  0.6617272724
 C -4.1266546410  0.9811980135  0.6662525037
 C  4.1184715662  0.9973113321 -0.6730907962
 C -4.1355508403 -1.0281480943 -0.6806784568
 C  4.8416006303 -0.0075806548 -0.0182152132
 C -4.8289961324 -0.0132652403  0.0032840441
 C  0.6024520533 -0.0117084664  0.0008162964
 C -0.6028806440 -0.0044021067 -0.0102283931
 H  2.2250033699 -1.7728093755  1.2354507423
 H -2.1789942568  1.7442598711  1.1958798918
 H  2.2119087086  1.7729094304 -1.2026611040
 H -2.2306825307 -1.7286995714 -1.2718632199
 H  4.6779335017 -1.6968278343  1.2753503216
 H -4.6566609976  1.7657716264  1.1791001552
 H  4.6229302889  1.7436998103 -1.2369933413
 H -4.7202916507 -1.7859771129 -1.1935073562
 H  5.9272786997  0.0378073611 -0.0115782254
 H -5.8999181224  0.0319102385  0.0419622556
24
step 7
 C  2.0623732606 -0.0035384461  0.0059899473
 C -2.0511474912  0.0312706596  0.0344679550
 C  2.7731590243 -1.0030232936  0.6733352638
 C -2.7309328517  0.9736475201  0.6894087512
 C  2.7367974513  1.0075832173 -0.6840470782
 C -2.7720419718 -0.9844991361 -0.6842341773
 C  4.1475424751 -1.0073557990  0.6598920455
 C -4.1247812405  0.9784243049  0.6651716593
 C  4.1149598220  0.9969102672 -0.6731426472
 C -4.1352935437 -1.0332093711 -0.6820026167
 C  4.8424743688 -0.0085666468 -0.0212803155
 C -4.8274734611 -0.0150856365  0.0041645815
 C  0.6023656560 -0.0136582629  0.0009533309
 C -0.6026422163 -0.0050428243 -0.0118015927
 H  2.2298905128 -1.7679935865  1.2382509578
 H -2.1734749173  1.7415622532  1.1977058556
 H  2.2074048599  1.7775630152 -1.2068467931
 H -2.2332741631 -1.7191594171 -1.2814597940
 H  4.6818456756 -1.6913520538  1.2907810766
 H -4.6543346335  1.7660502873  1.1774242585
 H  4.6192091920  1.7454853341 -1.2469245296
 H -4.7242675895 -1.7881843152 -1.1933579754
 H  5.9276715629  0.0429859770 -0.0134713680
 H -5.9017821963  0.0354798790  0.0475880730
24
step 8
 C  2.0642805755 -0.0040189811  0.0066322008
 C -2.0515202951  0.0336730447  0.0378372215
 C  2.7751911872 -1.0041064888  0.6736540181
 C -2.7281667424  0.9712785859  0.6923770495
 C  2.7347334049  1.0081663913 -0.6849948812
 C -2.7740186607 -0.9826746262 -0.6859908176
 C  4.1489856081 -1.0081846502  0.6580891422
 C -4.1230400547  0.9755406962  0.6640451317
 C  4.1115505936  0.9963384426 -0.6732254295
 C -4.1352044107 -1.0380764260 -0.6832205259
 C  4.8431945973 -0.0094320817 -0.0243580123
 C -4.8257998441 -0.0167535424  0.0051775227
 C  0.6014831172 -0.0156080198  0.0010924608
 C -0.6015221820 -0.0056506904 -0.0133092167
 H  2.2353525926 -1.7622003397  1.2401929005
 H -2.1682413023  1.7396004870  1.2002211735
 H  2.2019761836  1.7830027658 -1.2115494949
 H -2.2355066666 -1.7091876971 -1.2900597225
 H  4.6864158700 -1.6873995893  1.3059617673
 H -4.6523716691  1.7665583807  1.1759864224
 H  4.6168081119  1.7485259674 -1.2570902862
 H -4.7271564490 -1.7905170222 -1.1934231631
 H  5.9276315877  0.0477011668 -0.0153695328
 H -5.9044594061  0.0383155561  0.0526219396
24
step 9
 C  2.0659919129 -0.0045100562  0.0072083245
 C -2.0517158022  0.0353312239  0.0406422617
 C  2.7770796510 -1.0051985108  0.6740035198
 C -2.7256239007  0.9693452964  0.6955990563
 C  2.7327344345  1.0085996510 -0.6858221344
 C -2.7758473521 -0.9808589552 -0.6877796336
 C  4.1506391351 -1.0088441226  0.6563784861
 C -4.1214469305  0.9725722535  0.6628937046
 C  4.1083070210  0.9956532732 -0.6733991403
 C -4.1352891037 -1.0427207908 -0.6843154686
 C  4.8437456580 -0.0101680851 -0.0274470069
 C -4.8240237306 -0.0182713458  0.0063258494
 C  0.5998766633 -0.0175573627  0.0012341854
 C -0.5995851617 -0.0062244566 -0.0147449065
 H  2.2410798674 -1.7558605250  1.2415667508
 H -2.1634422405  1.7382822192  1.2033899479
 H  2.1960195741  1.7886167838 -1.2163490614
 H -2.2372262896 -1.6989510810 -1.2977171308
 H  4.6911858855 -1.6844190583  1.3202278363
 H -4.6506778780  1.7670900875  1.1746647007
 H  4.6153105859  1.7521489823 -1.2669126512
 H -4.7289382992 -1.7930470154 -1.1937682538
 H  5.9272079376  0.0519176897 -0.0172844755
 H -5.9074192028  0.0403433112  0.0569981564
24
step 10
 C  2.0674711275 -0.0050219312  0.0077186936
 C -2.0517020403  0.0362061787  0.0428483085
 C  2.7788475514 -1.0062481664  0.6743497740
 C -2.7233072998  0.9678791791  0.6990934886
 C  2.7307588510  1.0089280193 -0.6865590483
 C -2.7775251458 -0.9790414846 -0.6895936368
 C  4.1525481370 -1.0093771118  0.6548198973
 C -4.1200132256  0.9695513023  0.6617429656
 C  4.1052906123  0.9949156157 -0.6737251505
 C -4.1355482434 -1.0471139362 -0.6852707289
 C  4.8441136800 -0.0107682940 -0.0305449440
 C -4.8221995712 -0.0196491602  0.0076071775
 C  0.5976639964 -0.0195060580  0.0013793944
 C -0.5969425400 -0.0067635461 -0.0161034825
 H  2.2467082740 -1.7494842517  1.2427274850
 H -2.1592306168  1.7374922752  1.2071589997
 H  2.1899589657  1.7937672770 -1.2208061998
 H -2.2382719870 -1.6886533075 -1.3045273338
 H  4.6957062739 -1.6818675233  1.3329112098
 H -4.6491530796  1.7674232038  1.1733273818
 H  4.6142803963  1.7556632587 -1.2757987761
 H -4.7296273299 -1.7958504524 -1.1944597758
 H  5.9264746407  0.0556107374 -0.0192313420
 H -5.9101058155  0.0415028522  0.0606606020
24
step 11
 C  2.0686823368 -0.0055653110  0.0081647569
 C -2.0514522482  0.0362786754  0.0444343227
 C  2.7805229157 -1.0072024285  0.6746569336
 C -2.7212133452  0.9668959493  0.7028686091
 C  2.7287682280  1.0091932348 -0.6872342016
 C -2.7790503258 -0.9772118218 -0.6914249599
 C  4.1547455138 -1.0098205931  0.6534664115
 C -4.1187442013  0.9665147436  0.6606215750
 C  4.1025550601  0.9941820129 -0.6742599247
 C -4.1359780653 -1.0512279217 -0.6860701077
 C  4.8442869487 -0.0112287765 -0.0336484658
 C -4.8203815040 -0.0209049535  0.0090135518
 C  0.5950031528 -0.0214541172  0.0015294760
 C -0.5937473110 -0.0072680624 -0.0173811300
 H  2.2518594859 -1.7436044566  1.2440537644
 H -2.1557493162  1.7371102997  1.2114690017
 H  2.1841914594  1.7978690590 -1.2245159707
 H -2.2384904795 -1.6785157188 -1.3106118753
 H  4.6995937829 -1.6792797576  1.3434151844
 H -4.6477083605  1.7673458974  1.1718502030
 H  4.6133194460  1.7584458754 -1.2832112479
 H -4.7292654484 -1.7989994631 -1.1955593031
 H  5.9255226657  0.0587658527 -0.0212286443
 H -5.9120078838  0.0417520217  0.0635668260
24
step 12
 C  2.0695915360 -0.0061505632  0.0085485085
 C -2.0509470909  0.0355502591  0.0453939169
 C  2.7821349290 -1.0080124552  0.6748918487
 C -2.7193327595  0.9663933014  0.7069206470
 C  2.7267321068  1.0094281239 -0.6878707027
 C -2.7804209786 -0.9753615528 -0.6932663118
 C  4.1572485737 -1.0102012226  0.6523591050
 C -4.1176377513  0.9635013490  0.6595595417
 C  4.1001414627  0.9934988450 -0.6750501301
 C -4.1365712446 -1.0550362305 -0.6866985595
 C  4.8442564304 -0.0115478825 -0.0367532894
 C -4.8186179461 -0.0220643194  0.0105314783
 C  0.5920851719 -0.0234018762  0.0016863985
 C -0.5901866373 -0.0077388337 -0.0185755712
 H  2.2561885798 -1.7387105194  1.2458973262
 H -2.1531182394  1.7370270156  1.2162647324
 H  2.1790443415  1.8004516341 -1.2271503006
 H -2.2377528517 -1.6687558980 -1.3161005463
 H  4.7025722539 -1.6763154343  1.3512723080
 H -4.6462812363  1.7666813045  1.1701319218
 H  4.6121108011  1.7600066084 -1.2887226489
 H -4.7279142187 -1.8025527667 -1.1971166600
 H  5.9244501189  0.0613783866 -0.0232981745
 H -5.9127164691  0.0410705517  0.0656916549
24
step 13
 C  2.0701682992 -0.0067870065  0.0088719975
 C -2.0501762851  0.0340432604  0.0457356011
 C  2.7837098627 -1.0086396886  0.6750288562
 C -2.7176518416  0.9663499252  0.7112330324
 C  2.7246314241  1.0096526556 -0.6884834784
 C -2.7816335859 -0.9734858951 -0.6951124705
 C  4.1600572098 -1.0105326770  0.6515235557
 C -4.1166835848  0.9605493074  0.6585866740
 C  4.0980750993  0.9928984508 -0.6761292847
 C -4.1373177855 -1.0585146892 -0.6871428881
 C  4.8440163952 -0.0117260444 -0.0398542953
 C -4.8169474618 -0.0231598853  0.0121422065
 C  0.5891242235 -0.0253500350  0.0018527419
 C -0.5864719581 -0.0081774868 -0.0196861832
 H  2.2594328116 -1.7351809087  1.2485294855
 H -2.1514239894  1.7371570960  1.2215031762
 H  2.1747447343  1.8012021823 -1.2284876005
 H -2.2359710072 -1.6595668434 -1.3211124431
 H  4.7044976246 -1.6727867398  1.3561837232
 H -4.6448471582  1.7653074032  1.1681066923
 H  4.6104466975  1.7600299169 -1.2920525138
 H -4.7256461942 -1.8065463302 -1.1991631573
 H  5.9233514650  0.0634525631 -0.0254648735
 H -5.9119675423  0.0394624577  0.0670297286
24
step 14
 C  2.0703874183 -0.0074823597  0.0091369352
 C -2.0491395882  0.0317998207  0.0454823403
 C  2.7852674311 -1.0090608854  0.6750539156
 C -2.7161539865  0.9667258739  0.7157765429
 C  2.7224606213  1.0098715869 -0.6890776388
 C -2.7826818647 -0.9715850718 -0.6969616085
 C  4.1631533396 -1.0108143774  0.6509677890
 C -4.1158630130  0.9576941774  0.6577312903
 C  4.0963636202  0.9923969272 -0.6775157876
 C -4.1382058220 -1.0616423898 -0.6873924365
 C  4.8435650555 -0.0117655561 -0.0429456155
 C -4.8153960158 -0.0242303290  0.0138222917
 C  0.5863451981 -0.0272996338  0.0020316537
 C -0.5828264467 -0.0085865524 -0.0207140321
 H  2.2614525317 -1.7332273280  1.2520946667
 H -2.1507130107  1.7374474518  1.2271587397
 H  2.1714012448  1.7999905779 -1.2284301699
 H -2.2331116294 -1.6510995534 -1.3257390155
 H  4.7053699552 -1.6686709112  1.3580419099
 H -4.6434263408  1.7631704995  1.1657522525
 H  4.6082440400  1.7583981082 -1.2930886164
 H -4.7225367802 -1.8109852163 -1.2017056656
 H  5.9223070868  0.0650003090 -0.0277566414
 H -5.9096678722  0.0369567759  0.0675966534
24
step 15
 C  2.0702304909 -0.0082423896  0.0093444474
 C -2.0478470573  0.0288799765  0.0446704241
 C  2.7868184647 -1.0092709975  0.6749671682
 C -2.7148212908  0.9674642305  0.7205103364
 C  2.7202285537  1.0100735702 -0.6896478392
 C -2.7835559978 -0.9696651424 -0.6988161820
 C  4.1665013539 -1.0110312932  0.6506815167
 C -4.1151493494  0.9549673658  0.6570192620
 C  4.0949964785  0.9919932710 -0.6792120978
 C -4.1392222042 -1.0644025047 -0.6874397007
 C  4.8429051209 -0.0116703410 -0.0460207316
 C -4.8139756062 -0.0253190561  0.0155444064
 C  0.5839688674 -0.0292519594  0.0022267092
 C -0.5794702141 -0.0089695963 -0.0216617843
 H  2.2622544814 -1.7328634870  1.2565820241
 H -2.1509889780  1.7378800892  1.2332250401
 H  2.1689958869  1.7968789154 -1.2270110166
 H -2.2292056814 -1.6434514251 -1.3300316692
 H  4.7053350050 -1.6641114139  1.3569390411
 H -4.6420855046  1.7602913833  1.1630934324
 H  4.6055499434  1.7551995890 -1.2918951460
 H -4.7186578283 -1.8158378060 -1.2047223233
 H  5.9213743525  0.0660399748 -0.0302040709
 H -5.9059046959  0.0336066145  0.0674287134
24
step 16
 C  2.0696872952 -0.0090708350  0.0094950095
 C -2.0463187258  0.0253589014  0.0433477097
 C  2.7883643858 -1.0092831385  0.6747832340
 C -2.7136361826  0.9684939604  0.7253838269
 C  2.7179582064  1.0102315716 -0.6901785478
 C -2.7842423654 -0.9677381191 -0.7006831985
 C  4.1700494115 -1.0111547546  0.6506366436
 C -4.1145088354  0.9523952402  0.6564734524
 C  4.0939454755  0.9916697196 -0.6812049631
 C -4.1403528816 -1.0667828743 -0.6872807649
 C  4.8420441854 -0.0114457486 -0.0490725833
 C -4.8126842685 -0.0264726891  0.0172783161
 C  0.5821955315 -0.0312083615  0.0024416746
 C -0.5766038896 -0.0093313842 -0.0225334907
 H  2.2619918155 -1.7339061313  1.2618225022
 H -2.1522143854  1.7384694551  1.2397132882
 H  2.1673857398  1.7921168144 -1.2243908627
 H -2.2243515163 -1.6366621759 -1.3339964736
 H  4.7046763314 -1.6594088695  1.3531614451
 H -4.6409343974  1.7567637446  1.1602007094
 H  4.6025387199  1.7507242226 -1.2887092013
 H -4.7140738466 -1.8210333752 -1.2081605779
 H  5.9205815686  0.0665951491 -0.0328400801
 H -5.9009394551  0.0294866233  0.0665811988
24
step 17
 C  2.0687569828 -0.0099695649  0.0095885660
 C -2.0445837386  0.0213235025  0.0415713573
 C  2.7898986193 -1.0091257482  0.6745292100
 C -2.7125828695  0.9697336939  0.7303392061
 C  2.7156851898  1.0103046931 -0.6906452712
 C -2.7847238218 -0.9658213096 -0.7025737383
 C  4.1737316670 -1.0111443969  0.6507892204
 C -4.1139020649  0.9499988953  0.6561135604
 C  4.0931665351  0.9913933407 -0.6834667346
 C -4.1415830178 -1.0687762865 -0.6869155409
 C  4.8409948661 -0.0110983319 -0.0520937148
 C -4.8115074888 -0.0277394175  0.0189919551
 C  0.5811884430 -0.0331700101  0.0026801755
 C -0.5743921667 -0.0096780537 -0.0233342420
 H  2.2609405440 -1.7360082445  1.2675122359
 H -2.1543162222  1.7392546613  1.2466472656
 H  2.1663144924  1.7861221913 -1.2208452393
 H -2.2187108875 -1.6307179774 -1.3375962534
 H  4.7037965601 -1.6550003327  1.3471678471
 H -4.6401172550  1.7527447178  1.1571840868
 H  4.5994994002  1.7454446509 -1.2839246624
 H -4.7088412851 -1.8264636192 -1.2119379169
 H  5.9199253274  0.0666936588 -0.0356994589
 H -5.8951852664  0.0246890737  0.0651255463
24
step 18
 C  2.0674489515 -0.0109389722  0.0096248092
 C -2.0426791510  0.0168688521  0.0394053997
 C  2.7914093391 -1.0088376688  0.6742408660
 C -2.7116482716  0.9710960177  0.7353143503
 C  2.7134549149  1.0102415315 -0.6910168379
 C -2.7849807409 -0.9639361056 -0.7045018830
 C  4.1774716756 -1.0109515166  0.6510831477
 C -4.1132860912  0.9477944584  0.6559562912
 C  4.0926027984  0.9911191868 -0.6859580302
 C -4.1428966685 -1.0703805254 -0.6863478381
 C  4.8397746706 -0.0106356422 -0.0550764629
 C -4.8104210694 -0.0291670949  0.0206527160
 C  0.5810590535 -0.0351376133  0.0029453219
 C -0.5729491155 -0.0100172774 -0.0240697384
 H  2.2594587715 -1.7387154412  1.2732562223
 H -2.1571948738  1.7402874739  1.2540555567
 H  2.1654358025  1.7794452441 -1.2167400264
 H -2.2124979335 -1.6255627100 -1.3407601224
 H  4.7031852171 -1.6514233085  1.3395479844
 H -4.6397995074  1.7484380313  1.1541824643
 H  4.5968114560  1.7399799229 -1.2780607567
 H -4.7030107511 -1.8319881493 -1.2159454571
 H  5.9193717675  0.0663668261 -0.0388182229
 H -5.8891674677  0.0193188413  0.0631454579
24
step 19
 C  2.0657833979 -0.0119785441  0.0096035872
 C -2.0406484610  0.0120945167  0.0369181812
 C  2.7928827881 -1.0084622936  0.6739579424
 C -2.7108225304  0.9724919680  0.7402459357
 C  2.7113184060  1.0099852238 -0.6912588359
 C -2.7849924755 -0.9621062749 -0.7064831600
 C  4.1811872139 -1.0105241092  0.6514558596
 C -4.1126168991  0.9457939672  0.6560158637
 C  4.0921892141  0.9907953489 -0.6886319774
 C -4.1442762636 -1.0715981291 -0.6855851933
 C  4.8384055832 -0.0100660408 -0.0580131951
 C -4.8093954125 -0.0308013498  0.0222287744
 C  0.5818560582 -0.0371111488  0.0032393519
 C -0.5723274395 -0.0103583649 -0.0247458322
 H  2.2579381059 -1.7415324609  1.2786220812
 H -2.1607353685  1.7416173464  1.2619618787
 H  2.1643500036  1.7727138856 -1.2124942082
 H -2.2059627134 -1.6211139548 -1.3433986058
 H  4.7033706576 -1.6492609884  1.3309587654
 H -4.6401506021  1.7440709286  1.1513492123
 H  4.5949058833  1.7350372704 -1.2717126037
 H -4.6966316227 -1.8374435253 -1.2200541463
 H  5.9188614760  0.0656489584 -0.0422328056
 H -5.8834679121  0.0134877075  0.0607323927
24
step 20
 C  2.0637914528 -0.0130875274  0.0095253731
 C -2.0385399985  0.0071010282  0.0341798393
 C  2.7943064166 -1.0080418665  0.6737194444
 C -2.7100991195  0.9738353825  0.7450725001
 C  2.7093268445  1.0094800353 -0.6913380934
 C -2.7847390414 -0.9603560192 -0.7085327297
 C  4.1847964511 -1.0098135767  0.6518458313
 C -4.1118520915  0.9440066611  0.6563047588
 C  4.0918586035  0.9903700004 -0.6914400202
 C -4.1457020073 -1.0724358986 -0.6846385087
 C  4.8369133990 -0.0093985129 -0.0608965850
 C -4.8084009420 -0.0326837904  0.0236903676
 C  0.5835600629 -0.0390896669  0.0035633560
 C -0.5725133856 -0.0107122556 -0.0253681094
 H  2.2567564507 -1.7439873433  1.2831933997
 H -2.1648194672  1.7432754331  1.2703746159
 H  2.1626540974  1.7665614228 -1.2085304645
 H -2.1993713813 -1.6172812760 -1.3454215919
 H  4.7048566439 -1.6490685077  1.3220396717
 H -4.6413243223  1.7398669670  1.1488353846
 H  4.5942107073  1.7313307761 -1.2654838767
 H -4.6897581026 -1.8426548837 -1.2241229311
 H  5.9183175405  0.0645770200 -0.0459791165
 H -5.8786562881  0.0073085605  0.0579809766
24
step 21
 C  2.0615148846 -0.0142655901  0.0093917288
 C -2.0364052195  0.0019867095  0.0312599788
 C  2.7956713779 -1.0076126858  0.6735595810
 C -2.7094746309  0.9750467469  0.7497371855
 C  2.7075253357  1.0086788940 -0.6912277817
 C -2.7842028093 -0.9587080521 -0.7106635605
 C  4.1882249274 -1.0087824794  0.6522010060
 C -4.1109535993  0.9424404292  0.6568345476
 C  4.0915487602  0.9897998971 -0.6943387446
 C -4.1471513010 -1.0729042373 -0.6835215605
 C  4.8353268479 -0.0086424803 -0.0637199001
 C -4.8074140334 -0.0348503717  0.0250109564
 C  0.5860847730 -0.0410712106  0.0039171321
 C -0.5734282506 -0.0110913633 -0.0259415602
 H  2.2562382939 -1.7456850383  1.2866153640
 H -2.1693368975  1.7452598120  1.2792769612
 H  2.1600009005  1.7615429467 -1.2052180954
 H -2.1929854961 -1.6139841265 -1.3467562776
 H  4.7080497719 -1.6512867640  1.3133176414
 H -4.6434386281  1.7360179399  1.1467725823
 H  4.5950845907  1.7294827506 -1.2599077768
 H -4.6824556412 -1.8474489122 -1.2280080450
 H  5.9176557342  0.0631903788 -0.0500914962
 H -5.8752158862  0.0008901948  0.0549849834
24
step 22
 C  2.0590053510 -0.0155133859  0.0092056940
 C -2.0342969494 -0.0031549933  0.0282256536
 C  2.7969742199 -1.0072015405  0.6735046649
 C -2.7089483711  0.9760562447  0.7541899439
 C  2.7059468148  1.0075506786 -0.6909123155
 C -2.7833700176 -0.9571819106 -0.7128848101
 C  4.1914121983 -1.0074119833  0.6524864514
 C -4.1098901831  0.9411030775  0.6576165905
 C  4.0912095662  0.9890589588 -0.6972965187
 C -4.1485983004 -1.0730164208 -0.6822504476
 C  4.8336765626 -0.0078076174 -0.0664772727
 C -4.8064224698 -0.0373299736  0.0261682152
 C  0.5892845150 -0.0430528778  0.0042991922
 C -0.5749362451 -0.0115092611 -0.0264703707
 H  2.2566252253 -1.7463469075  1.2886291699
 H -2.1741940036  1.7475242259  1.2886191727
 H  2.1561582165  1.7580536694 -1.2028174391
 H -2.1870427276 -1.6111672337 -1.3473627286
 H  4.7131907677 -1.6561588518  1.3051208824
 H -4.6465575607  1.7326589729  1.1452579325
 H  4.5977488933  1.7299234713 -1.2553702083
 H -4.6748066958 -1.8516668369 -1.2315724899
 H  5.9167957053  0.0615305374 -0.0546016203
 H -5.8734752523 -0.0056666623  0.0518344771
24
step 23
 C  2.0563232048 -0.0168329339  0.0089720382
 C -2.0322675792 -0.0082375918  0.0251397222
 C  2.7982178463 -1.0068234199  0.6735710410
 C -2.7085219125  0.9768058045  0.7583890539
 C  2.7046073205  1.0060857011 -0.6903909760
 C -2.7822319619 -0.9557926418 -0.7152005725
 C  4.1943166748 -1.0057071679  0.6526892025
 C -4.1086394901  0.9400030650  0.6586623927
 C  4.0908086615  0.9881449039 -0.7002983142
 C -4.1500136908 -1.0727878941 -0.6808430499
 C  4.8319939363 -0.0069036715 -0.0691639274
 C -4.8054292882 -0.0401432096  0.0271448251
 C  0.5929668358 -0.0450310172  0.0047069134
 C -0.5768574374 -0.0119802245 -0.0269578359
 H  2.2580568078 -1.7458360615  1.2890946862
 H -2.1793184746  1.7499722742  1.2983142834
 H  2.1510551196  1.7562669981 -1.2014380429
 H -2.1817407742 -1.6088119608 -1.3472453322
 H  4.7203065925 -1.6636697835  1.2975250824
 H -4.6506778894  1.7298509162  1.1443436491
 H  4.6022339236  1.7328126010 -1.2520539956
 H -4.6669149848 -1.8551761974 -1.2346948357
 H  5.9156719615  0.0596407578 -0.0595374213
 H -5.8735589547 -0.0122717671  0.0486144169
24
step 24
 C  2.0535358688 -0.0182277538  0.0086973312
 C -2.0303672173 -0.0131830358  0.0220595989
 C  2.7994118960 -1.0064804013  0.6737639958
 C -2.7081987121  0.9772500648  0.7623018817
 C  2.7035037794  1.0042979773 -0.6896793021
 C -2.7807857676 -0.9545499563 -0.7176091001
 C  4.1969174510 -1.0036985899  0.6528187844
 C -4.1071894631  0.9391494343  0.6599834595
 C  4.0903342487  0.9870819761 -0.7033472881
 C -4.1513647423 -1.0722356811 -0.6793185503
 C  4.8303099204 -0.0059402868 -0.0717763499
 C -4.8044540779 -0.0433014586  0.0279290846
 C  0.5969082877 -0.0470015260  0.0051367952
 C -0.5789838366 -0.0125186843 -0.0274063753
 H  2.2605608325 -1.7441699183  1.2880021865
 H -2.1846594970  1.7524581987  1.3082381634
 H  2.1448029966  1.7561084665 -1.2010216301
 H -2.1772257399 -1.6069427787 -1.3464591257
 H  4.7291974342 -1.6735277393  1.2903491856
 H -4.6557227354  1.7275732073  1.1440330352
 H  4.6083550574  1.7380048893 -1.2499205372
 H -4.6589076350 -1.8578803990 -1.2372765989
 H  5.9142435015  0.0575655166 -0.0649221050
 H -5.8753683821 -0.0188463289  0.0454045699
24
step 25
 C  2.0507158025 -0.0197027236  0.0083898125
 C -2.0286418225 -0.0179226648  0.0190363639
 C  2.8005726341 -1.0061616346  0.6740775978
 C -2.7079838991  0.9773563143  0.7659049205
 C  2.7026148778  1.0022236533 -0.6888078410
 C -2.7790346540 -0.9534578796 -0.7201025431
 C  4.1992127806 -1.0014395155  0.6529032479
 C -4.1055389440  0.9385508544  0.6615906175
 C  4.0897943020  0.9859188181 -0.7064626283
 C -4.1526157115 -1.0713779460 -0.6776970493
 C  4.8286538247 -0.0049268189 -0.0743123992
 C -4.8035313517 -0.0468061402  0.0285153456
 C  0.6008713836 -0.0489601994  0.0055847773
 C -0.5810965273 -0.0131386612 -0.0278176160
 H  2.2640521270 -1.7415211084  1.2854738890
 H -2.1901834789  1.7547943955  1.3182341894
 H  2.1376849911  1.7572727264 -1.2013546844
 H -2.1735857397 -1.6056284271 -1.3451105433
 H  4.7394626974 -1.6851935666  1.2832022704
 H -4.6615433685  1.7257285495  1.1442836604
 H  4.6157268503  1.7450711091 -1.2487344651
 H -4.6509348720 -1.8597252672 -1.2392476022
 H  5.9125010554  0.0553497440 -0.0707733192
 H -5.8785970717 -0.0253230232  0.0422801918
24
step 26
 C  2.0479380991 -0.0212636822  0.0080590737
 C -2.0271313718 -0.0223977528  0.0161141585
 C  2.8017223152 -1.0058444215  0.6744954828
 C -2.7078842700  0.9771035830  0.7691832214
 C  2.7019047510  0.9999160363 -0.6878185974
 C -2.7769876221 -0.9525149052 -0.7226672173
 C  4.2012159025 -0.9989995644  0.6529820057
 C -4.1036974131  0.9382139073  0.6634928991
 C  4.0892125296  0.9847220705 -0.7096743761
 C -4.1537286239 -1.0702337234 -0.6759992810
 C  4.8270522033 -0.0038721324 -0.0767713708
 C -4.8027063290 -0.0506482765  0.0289042750
 C  0.6046210271 -0.0509030811  0.0060465703
 C -0.5829820602 -0.0138532477 -0.0281925141
 H  2.2683400288 -1.7382065784  1.2817550967
 H -2.1958662505  1.7567647546  1.3281220965
 H  2.1301166371  1.7592783244 -1.2021068314
 H -2.1708501486 -1.6049776072 -1.3433524993
 H  4.7505579476 -1.6979501181  1.2755662425
 H -4.6679290264  1.7241585232  1.1450171106
 H  4.6238113506  1.7533676454 -1.2481228170
 H -4.6431671395 -1.8607020449 -1.2405688682
 H  5.9104710956  0.0530378448 -0.0771025183
 H -5.8827768460 -0.0316456551  0.0393127906
24
step 27
 C  2.0452777784 -0.0229168472  0.0077156002
 C -2.0258681161 -0.0265596978  0.0133298437
 C  2.8028878677 -1.0054964875  0.6749926740
 C -2.7079083822  0.9764810946  0.7721293616
 C  2.7013285245  0.9974385389 -0.6867601029
 C -2.7746586307 -0.9517146636 -0.7252844157
 C  4.2029495698 -0.9964564118  0.6530975274
 C -4.1016840143  0.9381408840  0.6656961542
 C  4.0886223116  0.9835674721 -0.7130167741
 C -4.1546643421 -1.0688228641 -0.6742464606
 C  4.8255279264 -0.0027843861 -0.0791540218
 C -4.8020290427 -0.0548083094  0.0291029925