24
step 0
 C  2.0460868101  0.0000114245  0.0000080403
 C -2.0462091220  0.0000215137  0.0001027980
 C  2.7548622919 -0.9978018137  0.6731774299
 C -2.7549239331  0.9980234843  0.6730535931
 C  2.7547943652  0.9978554351 -0.6731895636
 C -2.7549839722 -0.9979202413 -0.6728738603
 C  4.1395367527 -0.9951403620  0.6716280239
 C -4.1395961949  0.9954602674  0.6714977138
 C  4.1394677588  0.9952603831 -0.6716827033
 C -4.1396561429 -0.9952320301 -0.6713788426
 C  4.8342080903  0.0000770461 -0.0000371590
 C -4.8343347989  0.0001452731  0.0000436447
 C  0.5883538275 -0.0000215090  0.0000303952
 C -0.5884799118 -0.0000348541  0.0001237586
 H  2.2129278403 -1.7746925085  1.1975101548
 H -2.2129404396  1.7749888995  1.1972217893
 H  2.2128063685  1.7747186401 -1.1975069947
 H -2.2130478957 -1.7749356251 -1.1970164828
 H  4.6793151817 -1.7728693748  1.1967029582
 H -4.6793229957  1.7733399574  1.1964036318
 H  4.6791930826  1.7730129459 -1.1967773631
 H -4.6794295664 -1.7730647525 -1.1963061597
 H  5.9169191087  0.0001034443 -0.0000538933
 H -5.9170465054  0.0001943567  0.0000190910
24
step 1
 C  2.0485609104 -0.0005230328  0.0009618976
 C -2.0469993245  0.0053559313  0.0056566831
 C  2.7577787788 -0.9983085301  0.6730125612
 C -2.7512091046  0.9941081613  0.6751556521
 C  2.7519058910  0.9997078500 -0.6750805081
 C -2.7576342195 -0.9959443304 -0.6744324258
 C  4.1406507947 -0.9974321844  0.6701192186
 C -4.1373322380  0.9932777554  0.6707322212
 C  4.1360402669  0.9959942813 -0.6720561379
 C -4.1387924981 -1.0008865360 -0.6730157498
 C  4.8355864179 -0.0013187052 -0.0030525171
 C -4.8337756825 -0.0022722270  0.0004390336
 C  0.5918454748 -0.0019681463  0.0001578707
 C -0.5921052936 -0.0008021150 -0.0016629451
 H  2.2133570139 -1.7768154896  1.2056633825
 H -2.2073649619  1.7687013607  1.1960553838
 H  2.2149856047  1.7716077568 -1.1964765817
 H -2.2160046976 -1.7681767029 -1.2107794480
 H  4.6766799961 -1.7562047162  1.2081404867
 H -4.6747947676  1.7711900266  1.1928552036
 H  4.6668356183  1.7644326173 -1.2015104040
 H -4.6874522114 -1.7752508151 -1.1957573984
 H  5.9192561234  0.0068382860 -0.0019957168
 H -5.9115178916  0.0061895044  0.0075702378
24
step 2
 C  2.0510170385 -0.0010521437  0.0019014808
 C -2.0477858695  0.0105761854  0.0111259936
 C  2.7606482645 -0.9988575444  0.6728784363
 C -2.7475327061  0.9902451861  0.6772818076
 C  2.7490700849  1.0014880908 -0.6769180118
 C -2.7602534928 -0.9939786153 -0.6759982180
 C  4.1417577148 -0.9996336933  0.6685788708
 C -4.1350872566  0.9910575939  0.6699446551
 C  4.1325935916  0.9966475921 -0.6723978878
 C -4.1379616091 -1.0065086362 -0.6746368356
 C  4.8369378235 -0.0026924342 -0.0060691099
 C -4.8331488499 -0.0046544400  0.0008608484
 C  0.5951097152 -0.0039143595  0.0002862580
 C -0.5954877548 -0.0015612081 -0.0034381561
 H  2.2141265892 -1.7784166896  1.2134341073
 H -2.2017602796  1.7626462097  1.1950705825
 H  2.2166869443  1.7690859284 -1.1958416320
 H -2.2189707653 -1.7612278809 -1.2242966289
 H  4.6745629663 -1.7404014955  1.2199452016
 H -4.6704221322  1.7692311678  1.1894480559
 H  4.6550936067  1.7566267665 -1.2066577838
 H -4.6952493003 -1.7774245405 -1.1952183132
 H  5.9214770517  0.0134902941 -0.0039317158
 H -5.9065605256  0.0120508028  0.0150147096
24
step 3
 C  2.0534392366 -0.0015717254  0.0028139326
 C -2.0485604485  0.0155728084  0.0164303091
 C  2.7634305054 -0.9994836711  0.6728023564
 C -2.7439310679  0.9864867719  0.6794617893
 C  2.7463322939  1.0031304195 -0.6786549060
 C -2.7628144252 -0.9920308175 -0.6775810269
 C  4.1428563198 -1.0016674202  0.6669783661
 C -4.1328786329  0.9887637973  0.6691148865
 C  4.1291108932  0.9971481357 -0.6726805627
 C -4.1371947009 -1.0120714609 -0.6762278889
 C  4.8382374351 -0.0040238118 -0.0090904523
 C -4.8323935459 -0.0069700622  0.0013345305
 C  0.5979462094 -0.0058609543  0.0004160949
 C -0.5984130707 -0.0023056349 -0.0051917452
 H  2.2155236581 -1.7790568807  1.2204940195
 H -2.1961044029  1.7570314234  1.1944355114
 H  2.2174784683  1.7676807064 -1.1959577176
 H -2.2219502949 -1.7539138218 -1.2373416342
 H  4.6734133833 -1.7261883295  1.2324511442
 H -4.6663411762  1.7676282425  1.1863038200
 H  4.6445130486  1.7502821370 -1.2126003641
 H -4.7026104866 -1.7795775729 -1.1947008314
 H  5.9234729487  0.0199831693 -0.0058586381
 H -5.9026700773  0.0176587817  0.0222591451
24
step 4
 C  2.0558090899 -0.0020791780  0.0036876216
 C -2.0493081812  0.0202385431  0.0214901825
 C  2.7660920448 -1.0002106109  0.6728043907
 C -2.7404398898  0.9828891037  0.6817284123
 C  2.7437268776  1.0045824055 -0.6802530109
 C -2.7652923358 -0.9901073105 -0.6791899272
 C  4.1439552595 -1.0034755739  0.6653003136
 C -4.1307245968  0.9863674293  0.6682276492
 C  4.1255868446  0.9974410208 -0.6728874124
 C -4.1365209364 -1.0175485830 -0.6777746186
 C  4.8394617991 -0.0052935467 -0.0121196314
 C -4.8314636460 -0.0091911872  0.0018832763
 C  0.6001892034 -0.0078083382  0.0005476386
 C -0.6007021903 -0.0030299107 -0.0069137927
 H  2.2177525070 -1.7784193655  1.2265941477
 H -2.1903984155  1.7520274645  1.1942932100
 H  2.2170329578  1.7677759151 -1.1970836182
 H -2.2249283086 -1.7460990750 -1.2497135389
 H  4.6735436677 -1.7140802577  1.2458714038
 H -4.6626559216  1.7664974797  1.1835110325
 H  4.6355096997  1.7459030442 -1.2196077171
 H -4.7093424470 -1.7817092899 -1.1942231506
 H  5.9251488189  0.0262434892 -0.0077745025
 H -5.9001989718  0.0229034832  0.0292169795
24
step 5
 C  2.0581049130 -0.0025741007  0.0045126924
 C -2.0500075277  0.0244707596  0.0262288195
 C  2.7686080913 -1.0010483708  0.6728953491
 C -2.7370923521  0.9795112570  0.6841169195
 C  2.7412724923  1.0058111581 -0.6816874861
 C -2.7676661443 -0.9882118389 -0.6808321435
 C  4.1450764797 -1.0050257475  0.6635443017
 C -4.1286443773  0.9838492848  0.6672742857
 C  4.1220324242  0.9974959885 -0.6730178590
 C -4.1359661492 -1.0229136110 -0.6792624096
 C  4.8405890150 -0.0064838314 -0.0151591261
 C -4.8303329066 -0.0112944294  0.0025273029
 C  0.6017153233 -0.0097565876  0.0006809693
 C -0.6022193061 -0.0037295498 -0.0085947867
 H  2.2209148802 -1.7763378992  1.2315873937
 H -2.1846750487  1.7477530784  1.1947520067
 H  2.2151757344  1.7695436737 -1.1993348663
 H -2.2278623461 -1.7377034710 -1.2612513381
 H  4.6750778831 -1.7043164832  1.2602307352
 H -4.6594270206  1.7658881798  1.1811134403
 H  4.6283136114  1.7437308165 -1.2277741187
 H -4.7152776604 -1.7838319460 -1.1938127434
 H  5.9264315899  0.0322025096 -0.0096792588
 H -5.8993037997  0.0276830962  0.0358070119
24
step 6
 C  2.0603013092 -0.0030586432  0.0052814363
 C -2.0506309540  0.0281740296  0.0305738731
 C  2.7709637123 -1.0019920667  0.6730756751
 C -2.7339174760  0.9764132985  0.6866637249
 C  2.7389697670  1.0068065839 -0.6829491792
 C -2.7699188642 -0.9863447035 -0.6825121742
 C  4.1462558414 -1.0063122274  0.6617297684
 C -4.1266578986  0.9812015994  0.6662538201
 C  4.1184768501  0.9973108191 -0.6730904547
 C -4.1355518622 -1.0281398023 -0.6806761142
 C  4.8415987631 -0.0075787276 -0.0182106408
 C -4.8289974690 -0.0132618614  0.0032832315
 C  0.6024484285 -0.0117055307  0.0008161027
 C -0.6028769424 -0.0044009996 -0.0102257912
 H  2.2250003948 -1.7728097331  1.2354411883
 H -2.1790028054  1.7442675830  1.1958802073
 H  2.2119090263  1.7729097284 -1.2026596922
 H -2.2306780342 -1.7287112549 -1.2718444979
 H  4.6779339656 -1.6968473400  1.2753304141
 H -4.6566666942  1.7657735163  1.1791045058
 H  4.6229444074  1.7437071086 -1.2369829956
 H -4.7202813984 -1.7859739175 -1.1935080748
 H  5.9272761465  0.0377978851 -0.0115753278
 H -5.8999224559  0.0319021950  0.0419516577
24
step 7
 C  2.0623691602 -0.0035375541  0.0059884446
 C -2.0511463469  0.0312628666  0.0344593714
 C  2.7731544237 -1.0030219996  0.6733352211
 C -2.7309388072  0.9736535516  0.6894045556
 C  2.7368019721  1.0075807934 -0.6840443591
 C -2.7720376881 -0.9845024804 -0.6842312799
 C  4.1475404321 -1.0073526630  0.6598949983
 C -4.1247849711  0.9784285855  0.6651732443
 C  4.1149659860  0.9969098505 -0.6731422955
 C -4.1352946213 -1.0331997974 -0.6819999390
 C  4.8424722762 -0.0085644709 -0.0212749727
 C -4.8274751729 -0.0150817958  0.0041635489
 C  0.6023620067 -0.0136548401  0.0009531055
 C -0.6026385276 -0.0050415498 -0.0117985968
 H  2.2298863285 -1.7679951093  1.2382407139
 H -2.1734848571  1.7415706324  1.1977056954
 H  2.2074063394  1.7775620858 -1.2068442844
 H -2.2332689660 -1.7191735445 -1.2814387395
 H  4.6818452985 -1.6913732584  1.2907572996
 H -4.6543409160  1.7660521033  1.1774290319
 H  4.6192242684  1.7454922019 -1.2469115909
 H -4.7242563552 -1.7881806031 -1.1933587407
 H  5.9276689512  0.0429752053 -0.0134679952
 H -5.9017861092  0.0354708991  0.0475760347
24
step 8
 C  2.0642759940 -0.0040179686  0.0066305376
 C -2.0515191207  0.0336646941  0.0378278328
 C  2.7751860805 -1.0041049275  0.6736538923
 C -2.7281733410  0.9712851456  0.6923720551
 C  2.7347384463  1.0081638256 -0.6849919269
 C -2.7740138863 -0.9826784087 -0.6859874556
 C  4.1489831788 -1.0081812658  0.6580925360
 C -4.1230442259  0.9755456968  0.6640469949
 C  4.1115576082  0.9963381596 -0.6732250561
 C -4.1352054978 -1.0380656162 -0.6832175395
 C  4.8431923158 -0.0094296868 -0.0243518963
 C -4.8258019646 -0.0167492768  0.0051762372
 C  0.6014796358 -0.0156041112  0.0010922042
 C -0.6015187197 -0.0056492544 -0.0133058441
 H  2.2353470431 -1.7622032858  1.2401822022
 H -2.1682525600  1.7396093448  1.2002203565
 H  2.2019790424  1.7830004299 -1.2115457708
 H -2.2355008379 -1.7092043984 -1.2900366168
 H  4.6864145641 -1.6874222294  1.3059342572
 H -4.6523784482  1.7665600687  1.1759915605
 H  4.6168238472  1.7485321389 -1.2570747142
 H -4.7271445090 -1.7905127752 -1.1934239225
 H  5.9276290415  0.0476892185 -0.0153656840
 H -5.9044627263  0.0383058190  0.0526086090
24
step 9
 C  2.0659868985 -0.0045089206  0.0072065175
 C -2.0517146639  0.0353225201  0.0406322261
 C  2.7770740778 -1.0051966781  0.6740033014
 C -2.7256310675  0.9693522507  0.6955931808
 C  2.7327399827  1.0085969787 -0.6858189740
 C -2.7758421273 -0.9808631666 -0.6877757922
 C  4.1506362586 -1.0088405237  0.6563822884
 C -4.1214515065  0.9725779923  0.6628958498
 C  4.1083148403  0.9956531467 -0.6733987170
 C -4.1352901520 -1.0427087975 -0.6843122043
 C  4.8437432282 -0.0101655029 -0.0274401155
 C -4.8240262808 -0.0182666913  0.0063242770
 C  0.5998735295 -0.0175529700  0.0012338980
 C -0.5995821285 -0.0062228650 -0.0147411761
 H  2.2410728670 -1.7558650567  1.2415557647
 H -2.1634547053  1.7382913889  1.2033882997
 H  2.1960239245  1.7886130259 -1.2163441163
 H -2.2372199348 -1.6989704477 -1.2976922411
 H  4.6911836750 -1.6844429859  1.3201969183
 H -4.6506850878  1.7670916467  1.1746701761
 H  4.6153267856  1.7521543643 -1.2668945683
 H -4.7289259313 -1.7930421964 -1.1937689361
 H  5.9272055680  0.0519046921 -0.0172801470
 H -5.9074218907  0.0403330198  0.0569837035
24
step 10
 C  2.0674657375 -0.0050206673  0.0077167594
 C -2.0517010126  0.0361973365  0.0428377942
 C  2.7788415454 -1.0062460705  0.6743494622
 C -2.7233149582  0.9678863857  0.6990866440
 C  2.7307649028  1.0089252643 -0.6865557031
 C -2.7775195120 -0.9790461181 -0.6895893031
 C  4.1525447430 -1.0093733254  0.6548240597
 C -4.1200181682  0.9695577885  0.6617453897
 C  4.1052991760  0.9949156541 -0.6737246330
 C -4.1355492043 -1.0471008190 -0.6852672224
 C  4.8441111464 -0.0107655576 -0.0305372756
 C -4.8222025591 -0.0196441500  0.0076052850
 C  0.5976613676 -0.0195011828  0.0013790764
 C -0.5969401181 -0.0067618051 -0.0160994147
 H  2.2466998245 -1.7494904115  1.2427162863
 H -2.1592441393  1.7375016169  1.2071563564
 H  2.1899648141  1.7937622423 -1.2208001398
 H -2.2382652523 -1.6886753816 -1.3045008986
 H  4.6957032770 -1.6818926810  1.3328773842
 H -4.6491606781  1.7674246898  1.1733331991
 H  4.6142969646  1.7556679194 -1.2757784622
 H -4.7296148031 -1.7958450025 -1.1944602900
 H  5.9264725381  0.0555968234 -0.0192265266
 H -5.9101079618  0.0414922300  0.0606452167
24
step 11
 C  2.0686766364 -0.0055639109  0.0081627116
 C -2.0514514106  0.0362699132  0.0444235032
 C  2.7805165029 -1.0072000906  0.6746565375
 C -2.7212214204  0.9669032632  0.7028607062
 C  2.7287747890  1.0091904111 -0.6872306862
 C -2.7790443252 -0.9772168737 -0.6914201235
 C  4.1547415264 -1.0098166424  0.6534708736
 C -4.1187494712  0.9665219765  0.6606242672
 C  4.1025642956  0.9941822126 -0.6742592545
 C -4.1359788912 -1.0512137478 -0.6860663991
 C  4.8442843595 -0.0112259198 -0.0336400197
 C -4.8203849251 -0.0208996155  0.0090113076
 C  0.5950011544 -0.0214487611  0.0015291272
 C -0.5937456517 -0.0072661781 -0.0173767463
 H  2.2518496857 -1.7436121547  1.2440423241
 H -2.1557637115  1.7371197009  1.2114652109
 H  2.1841987188  1.7978630312 -1.2245089991
 H -2.2384835526 -1.6785404856 -1.3105840934
 H  4.6995901834 -1.6793061457  1.3433790931
 H -4.6477163255  1.7673474186  1.1718563963
 H  4.6133363679  1.7584500150 -1.2831891161
 H -4.7292530145 -1.7989933011 -1.1955595384
 H  5.9255208938  0.0587511576 -0.0212233305
 H -5.9120096907  0.0417413080  0.0635507141
24
step 12
 C  2.0695855986 -0.0061490163  0.0085463674
 C -2.0509465240  0.0355417921  0.0453829658
 C  2.7821281271 -1.0080099093  0.6748913873
 C -2.7193411815  0.9664005818  0.7069115995
 C  2.7267391895  1.0094252381 -0.6878670264
 C -2.7804146533 -0.9753670221 -0.6932609650
 C  4.1572439158 -1.0101971294  0.6523637980
 C -4.1176433105  0.9635093176  0.6595624835
 C  4.1001512889  0.9934991939 -0.6750492381
 C -4.1365718900 -1.0550210739 -0.6866946935
 C  4.8442538371 -0.0115449394 -0.0367440662
 C -4.8186217854 -0.0220586747  0.0105288546
 C  0.5920838885 -0.0233960405  0.0016860180
 C -0.5901858527 -0.0077368125 -0.0185708936
 H  2.2561776205 -1.7387195381  1.2458855112
 H -2.1531332937  1.7370363879  1.2162596526
 H  2.1790528526  1.8004450018 -1.2271426951
 H -2.2377459584 -1.6687832836 -1.3160715709
 H  4.7025682699 -1.6763430781  1.3512346905
 H -4.6462895579  1.7666830127  1.1701385481
 H  4.6121281189  1.7600105200 -1.2886992110
 H -4.7279021067 -1.8025457907 -1.1971164884
 H  5.9244487108  0.0613630453 -0.0232923457
 H -5.9127182215  0.0410599947  0.0656750329
24
step 13
 C  2.0701622053 -0.0067852998  0.0088697754
 C -2.0501760665  0.0340352929  0.0457246869
 C  2.7837026810 -1.0086369790  0.6750283563
 C -2.7176605480  0.9663570427  0.7112227624
 C  2.7246390447  1.0096497107 -0.6884796476
 C -2.7816269787 -0.9734917834 -0.6951066087
 C  4.1600518078 -1.0105284645  0.6515284070
 C -4.1166893981  0.9605579902  0.6585898388
 C  4.0980854304  0.9928989312 -0.6761280945
 C -4.1373182083 -1.0584986310 -0.6871389134
 C  4.8440138517 -0.0117230486 -0.0398442968
 C -4.8169516960 -0.0231539457  0.0121391804
 C  0.5891236906 -0.0253437206  0.0018523278
 C -0.5864721124 -0.0081753351 -0.0196812335
 H  2.2594209599 -1.7351909261  1.2485170771
 H -2.1514394685  1.7371663693  1.2214966743
 H  2.1747542899  1.8011953992 -1.2284796859
 H -2.2359644038 -1.6595967185 -1.3210823823
 H  4.7044934770 -1.6728156596  1.3561453673
 H -4.6448558294  1.7653094785  1.1681138235
 H  4.6104644868  1.7600339457 -1.2920283404
 H -4.7256346078 -1.8065384229 -1.1991624376
 H  5.9233504232  0.0634367079 -0.0254585070
 H -5.9119695724  0.0394523067  0.0670128169
24
step 14
 C  2.0703812543 -0.0074804784  0.0091346464
 C -2.0491397883  0.0317925405  0.0454716212
 C  2.7852598727 -1.0090580629  0.6750534087
 C -2.7161629247  0.9667327164  0.7157649849
 C  2.7224687964  1.0098685851 -0.6890736588
 C -2.7826750188 -0.9715913825 -0.6969552290
 C  4.1631471272 -1.0108100723  0.6509727266
 C -4.1158690502  0.9577035435  0.6577346440
 C  4.0963743694  0.9923975194 -0.6775142194
 C -4.1382059840 -1.0616255165 -0.6873884050
 C  4.8435626172 -0.0117625406 -0.0429348451
 C -4.8154006162 -0.0242240958  0.0138188468
 C  0.5863453965 -0.0272928407  0.0020312024
 C -0.5828275502 -0.0085842766 -0.0207088315
 H  2.2614400980 -1.7332379596  1.2520813954
 H -2.1507286694  1.7374565672  1.2271506878
 H  2.1714116166  1.7999841215 -1.2284222900
 H -2.2331055894 -1.6511317413 -1.3257079390
 H  4.7053658377 -1.6687010975  1.3580036013
 H -4.6434353462  1.7631731339  1.1657599645
 H  4.6082623853  1.7584026106 -1.2930642959
 H -4.7225258990 -1.8109762531 -1.2017042505
 H  5.9223063864  0.0649840679 -0.0277497082
 H -5.9096705215  0.0369472731  0.0675796692
24
step 15
 C  2.0702243476 -0.0082403175  0.0093421057
 C -2.0478477361  0.0288735487  0.0446600440
 C  2.7868105286 -1.0092681148  0.6749666866
 C -2.7148304193  0.9674707087  0.7204974414
 C  2.7202372971  1.0100705168 -0.6896437169
 C -2.7835489583 -0.9696718793 -0.6988092831
 C  4.1664942756 -1.0110269276  0.6506864743
 C -4.1151555870  0.9549773759  0.6570227637
 C  4.0950075623  0.9919939565 -0.6792100722
 C -4.1392220714 -1.0643849079 -0.6874356667
 C  4.8429028434 -0.0116673380 -0.0460091945
 C -4.8139805416 -0.0253125184  0.0155405336
 C  0.5839697205 -0.0292446868  0.0022262160
 C -0.5794722209 -0.0089672027 -0.0216563526
 H  2.2622417795 -1.7328743387  1.2565676166
 H -2.1510045705  1.7378889915  1.2332153122
 H  2.1690068520  1.7968732458 -1.2270035061
 H -2.2292004789 -1.6434857144 -1.3299996205
 H  4.7053310571 -1.6641428048  1.3569015122
 H -4.6420948099  1.7602947618  1.1631017945
 H  4.6055689143  1.7552048938 -1.2918712431
 H -4.7186478109 -1.8158276651 -1.2047200676
 H  5.9213739475  0.0660234701 -0.0301965345
 H -5.9059082767  0.0335979870  0.0674118636
24
step 16
 C  2.0696812661 -0.0090685550  0.0094926287
 C -2.0463199299  0.0253534651  0.0433377947
 C  2.7883560703 -1.0092802449  0.6747828058
 C -2.7136454711  0.9685000117  0.7253695653
 C  2.7179675264  1.0102284784 -0.6901742937
 C -2.7842351800 -0.9677452853 -0.7006757784
 C  4.1700414262 -1.0111503680  0.6506415648
 C -4.1145152583  0.9524058478  0.6564770548
 C  4.0939568170  0.9916704843 -0.6812024047
 C -4.1403524244 -1.0667646489 -0.6872767838
 C  4.8420421233 -0.0114427887 -0.0490602865
 C -4.8126895084 -0.0264658234  0.0172740144
 C  0.5821969066 -0.0312006074  0.0024411325
 C -0.5766066984 -0.0093288790 -0.0225278460
 H  2.2619791219 -1.7339168523  1.2618067306
 H -2.1522296746  1.7384780868  1.2397017578
 H  2.1673971081  1.7921123336 -1.2243840185
 H -2.2243474071 -1.6366983344 -1.3339634852
 H  4.7046726118 -1.6594413300  1.3531253254
 H -4.6409439393  1.7567680270  1.1602097737
 H  4.6025583485  1.7507305913 -1.2886862162
 H -4.7140648360 -1.8210219498 -1.2081573485
 H  5.9205814005  0.0665784973 -0.0328318960
 H -5.9009442139  0.0294790759  0.0665646737
24
step 17
 C  2.0687511623 -0.0099670596  0.0095861599
 C -2.0445854997  0.0213191680  0.0415620133
 C  2.7898899238 -1.0091228861  0.6745288558
 C -2.7125922984  0.9697392842  0.7303235689
 C  2.7156950856  1.0103015816 -0.6906409015
 C -2.7847165415 -0.9658289062 -0.7025657935
 C  4.1737227504 -1.0111400376  0.6507940630
 C -4.1139086675  0.9500100485  0.6561172112
 C  4.0931780676  0.9913941783 -0.6834635759
 C -4.1415822116 -1.0687575294 -0.6869116680
 C  4.8409930716 -0.0110954447 -0.0520806671
 C -4.8115130058 -0.0277321877  0.0189872320
 C  0.5811901584 -0.0331617715  0.0026795760
 C -0.5743956279 -0.0096754422 -0.0233284001
 H  2.2609280642 -1.7360185695  1.2674949589
 H -2.1543309873  1.7392629586  1.2466338042
 H  2.1663261329  1.7861192045 -1.2208392942
 H -2.2187080905 -1.6307557666 -1.3375623627
 H  4.7037930231 -1.6550336354  1.3471336170
 H -4.6401269332  1.7527500232  1.1571938795
 H  4.5995196577  1.7454522400 -1.2839029920
 H -4.7088334139 -1.8264508301 -1.2119336029
 H  5.9199253355  0.0666769698 -0.0356905736
 H -5.8951913512  0.0246827833  0.0651095140
24
step 18
 C  2.0674434322 -0.0109362243  0.0096223919
 C -2.0426814848  0.0168657002  0.0393967114
 C  2.7914002658 -1.0088348708  0.6742405960
 C -2.7116578304  0.9711011415  0.7352973499
 C  2.7134653742  1.0102384355 -0.6910123763
 C -2.7849734213 -0.9639441306 -0.7044934074
 C  4.1774618227 -1.0109472431  0.6510878869
 C -4.1132928782  0.9478061015  0.6559599335
 C  4.0926144686  0.9911201014 -0.6859542143
 C -4.1428954933 -1.0703613340 -0.6863441275
 C  4.8397731915 -0.0106328555 -0.0550626752
 C -4.8104268421 -0.0291594520  0.0206475877
 C  0.5810608900 -0.0351288865  0.0029446549
 C -0.5729530425 -0.0100145641 -0.0240637127
 H  2.2594466205 -1.7387252154  1.2732374120
 H -2.1572089158  1.7402953653  1.2540400345
 H  2.1654476671  1.7794439260 -1.2167351254
 H -2.2124966139 -1.6256018968 -1.3407253853
 H  4.7031816947 -1.6514571179  1.3395159392
 H -4.6398091801  1.7484444253  1.1541929782
 H  4.5968322318  1.7399887481 -1.2780406600
 H -4.7030041468 -1.8319739554 -1.2159399793
 H  5.9193718988  0.0663502031 -0.0388085737
 H -5.8891749032  0.0193139530  0.0631300607
24
step 19
 C  2.0657782687 -0.0119755367  0.0096011727
 C -2.0406513673  0.0120925992  0.0369102117
 C  2.7928733425 -1.0084595822  0.6739577558
 C -2.7108322158  0.9724966476  0.7402276050
 C  2.7113294037  1.0099821912 -0.6912543146
 C -2.7849851767 -0.9621147224 -0.7064741441
 C  4.1811764403 -1.0105199906  0.6514604901
 C -4.1126238854  0.9458060420  0.6560194370
 C  4.0922009843  0.9907963570 -0.6886274608
 C -4.1442747049 -1.0715785997 -0.6855816962
 C  4.8384044621 -0.0100633808 -0.0579986803
 C -4.8094014266 -0.0307932335  0.0222232651
 C  0.5818577758 -0.0371019294  0.0032386062
 C -0.5723316250 -0.0103555524 -0.0247396338
 H  2.2579263014 -1.7415416465  1.2786018318
 H -2.1607485127  1.7416247558  1.2619441673
 H  2.1643621445  1.7727142567 -1.2124903923
 H -2.2059629707 -1.6211543203 -1.3433631058
 H  4.7033668512 -1.6492948535  1.3309289977
 H -4.6401600853  1.7440784176  1.1513604038
 H  4.5949269697  1.7350471808 -1.2716941786
 H -4.6966264103 -1.8374279327 -1.2200474650
 H  5.9188616942  0.0656324980 -0.0422223200
 H -5.8834765865  0.0134843328  0.0607177445
24
step 20
 C  2.0637867959 -0.0130842440  0.0095229756
 C -2.0385434613  0.0071003695  0.0341726310
 C  2.7942966070 -1.0080392544  0.6737193294
 C -2.7101089332  0.9738396649  0.7450528907
 C  2.7093383418  1.0094771286 -0.6913335531
 C -2.7847318284 -0.9603648793 -0.7085231608
 C  4.1847847924 -1.0098096914  0.6518503659
 C -4.1118593019  0.9440191081  0.6563082001
 C  4.0918704527  0.9903711318 -0.6914347735
 C -4.1457000559 -1.0724161253 -0.6846352729
 C  4.8369126715 -0.0093960041 -0.0608813577
 C -4.8084071907 -0.0326751304  0.0236845088
 C  0.5835614191 -0.0390799505  0.0035625198
 C -0.5725176193 -0.0107093442 -0.0253617476
 H  2.2567449197 -1.7439960094  1.2831719204
 H -2.1648315628  1.7432822855  1.2703545930
 H  2.1626666731  1.7665633423 -1.2085276660
 H -2.1993732424 -1.6173226197 -1.3453854435
 H  4.7048521331 -1.6491018699  1.3220120820
 H -4.6413333941  1.7398754986  1.1488471740
 H  4.5942317953  1.7313414466 -1.2654670545
 H -4.6897544053 -1.8426379508 -1.2241150513
 H  5.9183178332  0.0645608118 -0.0459677120
 H -5.8786659566  0.0073067780  0.0579671633
24
step 21
 C  2.0615107734 -0.0142620145  0.0093893624
 C -2.0364092081  0.0019873093  0.0312535545
 C  2.7956612148 -1.0076101773  0.6735595165
 C -2.7094845774  0.9750507003  0.7497163650
 C  2.7075372816  1.0086761878 -0.6912232702
 C -2.7841957511 -0.9587173109 -0.7106534229
 C  4.1882124366 -1.0087789128  0.6522054722
 C -4.1109610670  0.9424531882  0.6568377915
 C  4.0915606829  0.9898011925 -0.6943327507
 C -4.1471489543 -1.0728843112 -0.6835186290
 C  4.8353265422 -0.0086401455 -0.0637039766
 C -4.8074205159 -0.0348410896  0.0250047859
 C  0.5860855424 -0.0410609934  0.0039161936
 C -0.5734323387 -0.0110883502 -0.0259350429
 H  2.2562268874 -1.7456933410  1.2865929601
 H -2.1693478151  1.7452660428  1.2792545182
 H  2.1600141649  1.7615461287 -1.2052161491
 H -2.1929889150 -1.6140262667 -1.3467196237
 H  4.7080440452 -1.6513189870  1.3132919835
 H -4.6434470385  1.7360274119  1.1467848587
 H  4.5951052842  1.7294937002 -1.2598923421
 H -4.6824535781 -1.8474307503 -1.2279990186
 H  5.9176561161  0.0631745051 -0.0500790811
 H -5.8752261941  0.0008900528  0.0549720634
24
step 22
 C  2.0590018470 -0.0155095022  0.0092033721
 C -2.0343014194 -0.0031531571  0.0282200188
 C  2.7969637145 -1.0071991343  0.6735046226
 C -2.7089584554  0.9760599541  0.7541679931
 C  2.7059591493  1.0075482561 -0.6909078846
 C -2.7833631867 -0.9571915503 -0.7128740859
 C  4.1913989415 -1.0074088223  0.6524908844
 C -4.1098979478  0.9411160883  0.6576195694
 C  4.0912215692  0.9890604657 -0.6972897693
 C -4.1485955627 -1.0729964292 -0.6822478583
 C  4.8336766986 -0.0078054772 -0.0664606707
 C -4.8064291889 -0.0373199853  0.0261617755
 C  0.5892845062 -0.0430421571  0.0042981409
 C -0.5749400260 -0.0115061400 -0.0264637045
 H  2.2566137379 -1.7463550628  1.2886062167
 H -2.1742036304  1.7475297923  1.2885942225
 H  2.1561724890  1.7580577243 -1.2028161109
 H -2.1870475902 -1.6112100047 -1.3473257334
 H  4.7131832739 -1.6561892740  1.3050968409
 H -4.6465650466  1.7326692492  1.1452705628
 H  4.5977687438  1.7299341139 -1.2553558445
 H -4.6748063773 -1.8516476072 -1.2315624148
 H  5.9167962191  0.0615150723 -0.0545880939
 H -5.8734857763 -0.0056651418  0.0518224841
24
step 23
 C  2.0563203557 -0.0168287260  0.0089697732
 C -2.0322724744 -0.0082345597  0.0251348670
 C  2.7982070093 -1.0068211110  0.6735709881
 C -2.7085321381  0.9768093672  0.7583660632
 C  2.7046199795  1.0060836476 -0.6903866775
 C -2.7822254327 -0.9558026419 -0.7151892432
 C  4.1943027254 -1.0057044944  0.6526936373
 C -4.1086475958  0.9400162669  0.6586650374
 C  4.0908207595  0.9881466696 -0.7002908047
 C -4.1500105741 -1.0727679199 -0.6808408351
 C  4.8319945251 -0.0069017448 -0.0691466655
 C -4.8054362459 -0.0401324277  0.0271381618
 C  0.5929659051 -0.0450197917  0.0047057398
 C -0.5768607945 -0.0119769850 -0.0269510272
 H  2.2580450004 -1.7458443162  1.2890715986
 H -2.1793267102  1.7499771666  1.2982867700
 H  2.1510707393  1.7562714940 -1.2014370718
 H -2.1817469086 -1.6088552072 -1.3472081692
 H  4.7202968062 -1.6636977863  1.2975023666
 H -4.6506841933  1.7298618477  1.1443564895
 H  4.6022524828  1.7328223215 -1.2520403504
 H -4.6669165056 -1.8551561033 -1.2346838516
 H  5.9156726746  0.0596257666 -0.0595226751
 H -5.8735692578 -0.0122685834  0.0486033621
24
step 24
 C  2.0535337059 -0.0182232049  0.0086951339
 C -2.0303724710 -0.0131788628  0.0220555006
 C  2.7994007369 -1.0064781840  0.6737638975
 C -2.7082090794  0.9772535861  0.7622779481
 C  2.7035167000  1.0042963740 -0.6896751833
 C -2.7807796149 -0.9545602942 -0.7175971478
 C  4.1969028837 -1.0036964747  0.6528232480
 C -4.1071979552  0.9391627664  0.6599856990
 C  4.0903464582  0.9870840402 -0.7033390116
 C -4.1513612674 -1.0722158030 -0.6793167364
 C  4.8303109646 -0.0059385905 -0.0717584473
 C -4.8044612717 -0.0432897954  0.0279222452
 C  0.5969063474 -0.0469897962  0.0051354918
 C -0.5789867054 -0.0125153118 -0.0273994304
 H  2.2605484555 -1.7441785198  1.2879793857
 H -2.1846662497  1.7524624514  1.3082080697
 H  2.1448202691  1.7561129985 -1.2010207763
 H -2.1772329301 -1.6069863485 -1.3464219647
 H  4.7291849215 -1.6735528169  1.2903276168
 H -4.6557276258  1.7275846549  1.1440459432
 H  4.6083719375  1.7380131304 -1.2499072909
 H -4.6589110669 -1.8578596754 -1.2372648800
 H  5.9142445001  0.0575510549 -0.0649060241
 H -5.8753780718 -0.0188414980  0.0453944442
24
step 25
 C  2.0507143391 -0.0196978160  0.0083876919
 C -2.0286473598 -0.0179174179  0.0190329891
 C  2.8005611594 -1.0061595047  0.6740774203
 C -2.7079944039  0.9773599033  0.7658801442
 C  2.7026280034  1.0022225713 -0.6888039404
 C -2.7790289516 -0.9534685317 -0.7200899525
 C  4.1991976666 -1.0014380130  0.6529077537
 C -4.1055478667  0.9385642558  0.6615923796
 C  4.0898066363  0.9859212058 -0.7064535708
 C -4.1526119087 -1.0713582382 -0.6776956568
 C  4.8286553188 -0.0049253679 -0.0742938749
 C -4.8035387708 -0.0467935103  0.0285083776
 C  0.6008684062 -0.0489479676  0.0055833386
 C -0.5810988978 -0.0131351372 -0.0278105415
 H  2.2640389444 -1.7415302728  1.2854517698
 H -2.1901886642  1.7547980936  1.3182015440
 H  2.1377041389  1.7572769789 -1.2013537702
 H -2.1735937423 -1.6056721636 -1.3450735352
 H  4.7394471665 -1.6852153811  1.2831818418
 H -4.6615466599  1.7257404048  1.1442965063
 H  4.6157417775  1.7450774475 -1.2487213865
 H -4.6509402550 -1.8597041669 -1.2392353484
 H  5.9125024354  0.0553358566 -0.0707557842
 H -5.8786058506 -0.0253165737  0.0422709664
24
step 26
 C  2.0479373291 -0.0212583971  0.0080570365
 C -2.0271371118 -0.0223915074  0.0161114655
 C  2.8017105270 -1.0058423792  0.6744951963
 C -2.7078949022  0.9771073496  0.7691577037
 C  2.7019180354  0.9999155323 -0.6878149423
 C -2.7769824408 -0.9525258477 -0.7226539770
 C  4.2012003063 -0.9989987097  0.6529865519
 C -4.1037068067  0.9382273174  0.6634941110
 C  4.0892249950  0.9847247886 -0.7096645145
 C -4.1537245332 -1.0702142561 -0.6759983246
 C  4.8270541344 -0.0038709393 -0.0767522439
 C -4.8027139520 -0.0506345993  0.0288972242
 C  0.6046170444 -0.0508903513  0.0060449932
 C -0.5829839753 -0.0138495497 -0.0281853172
 H  2.2683258422 -1.7382164600  1.2817339940
 H -2.1958697917  1.7567680378  1.3280869775
 H  2.1301377647  1.7592821131 -1.2021057696
 H -2.1708587101 -1.6050213408 -1.3433157619
 H  4.7505392758 -1.6979685292  1.2755471396
 H -4.6679305961  1.7241707240  1.1450297847
 H  4.6238242005  1.7533718415 -1.2481097934
 H -4.6431744745 -1.8606808230 -1.2405562933
 H  5.9104729523  0.0530245655 -0.0770834063
 H -5.8827845462 -0.0316376248  0.0393044180
24
step 27
 C  2.0452776759 -0.0229111646  0.0077136503
 C -2.0258739741 -0.0265525354  0.0133277848
 C  2.8028757627 -1.0054945397  0.6749922550
 C -2.7079191247  0.9764851465  0.7721032024
 C  2.7013419335  0.9974386535 -0.6867567082
 C -2.7746540370 -0.9517258737 -0.7252705199
 C  4.2029335487 -0.9964562205  0.6531020976
 C -4.1016939132  0.9381542438  0.6656967432
 C  4.0886349058  0.9835705073 -0.7130060758
 C -4.1546600140 -1.0688037033 -0.6742459492
 C  4.8255302752 -0.0027834618 -0.0791343106
 C -4.8020368372 -0.0547935121  0.0290959020