9
step 0
 S -0.9863770252 -0.2861772190 -0.3256520125
 C  1.7669537951  0.0101010382  0.1749741379
 C  0.3825726038  0.6663449850  0.3612285964
 H  1.8140585908 -0.9475611155  0.6859244123
 H  2.5450610667  0.6494014487  0.5831308295
 H  1.9778506886 -0.1558894605 -0.8773562625
 H  0.3781434647  1.6318021743 -0.1394195119
 H  0.2200746102  0.8595477172  1.4207363203
 H -0.8069377621 -1.3473695636  0.4566335011
9
step 1
 S -0.9849557949 -0.2864732481 -0.3252352638
 C  1.7663281613  0.0151211779  0.1800836125
 C  0.3853148473  0.6660579027  0.3611420431
 H  1.8260993606 -0.9585798634  0.6936990729
 H  2.5363913355  0.6564725483  0.5783818933
 H  1.9699281289 -0.1484310301 -0.8810627301
 H  0.3820271662  1.6258753491 -0.1429699125
 H  0.2275648880  0.8539637318  1.4195172345
 H -0.8172980602 -1.3438065632  0.4566440605
9
step 2
 S -0.9835386562 -0.2867560282 -0.3248287230
 C  1.7657011871  0.0199427177  0.1851214741
 C  0.3880237421  0.6657299742  0.3610718770
 H  1.8379444896 -0.9680160125  0.7007211742
 H  2.5284390546  0.6640322589  0.5740334557
 H  1.9620449252 -0.1409664848 -0.8840251647
 H  0.3858718753  1.6203293502 -0.1465691443
 H  0.2348333034  0.8486205722  1.4185332344
 H -0.8275157521 -1.3405747314  0.4569573831
9
step 3
 S -0.9821272189 -0.2870140771 -0.3244411770
 C  1.7650764068  0.0244023374  0.1900238337
 C  0.3906687715  0.6653253056  0.3610351537
 H  1.8494070257 -0.9745657919  0.7063990182
 H  2.5218307186  0.6725248490  0.5704327247
 H  1.9542554353 -0.1334974863 -0.8856049949
 H  0.3896443148  1.6154933805 -0.1502573228
 H  0.2416783778  0.8437392296  1.4179910582
 H -0.8374782809 -1.3379627228  0.4578492549
9
step 4
 S -0.9807226111 -0.2872383150 -0.3240798273
 C  1.7644680794  0.0283801760  0.1947339706
 C  0.3932187934  0.6648167131  0.3610501998
 H  1.8603108058 -0.9772779126  0.7103296723
 H  2.5170190342  0.6822592006  0.5678310104
 H  1.9466462188 -0.1260512841 -0.8853270672
 H  0.3933128090  1.6116186378 -0.1540444762
 H  0.2479145353  0.8395200559  1.4180438956
 H -0.8470918668 -1.3361900086  0.4595421333
9
step 5
 S -0.9793254796 -0.2874230293 -0.3237496140
 C  1.7639052897  0.0318096315  0.1992079353
 C  0.3956426175  0.6641886077  0.3611365568
 H  1.8705038099 -0.9755974344  0.7123142378
 H  2.5142103577  0.6933426339  0.5663503530
 H  1.9393374233 -0.1186836880 -0.8829213758
 H  0.3968477798  1.6088498490 -0.1578972825
 H  0.2533780615  0.8361346635  1.4187706809
 H -0.8562855686 -1.3353775954  0.4621851250
9
step 6
 S -0.9779360526 -0.2875664546 -0.3234527548
 C  1.7634327947  0.0346818570  0.2034176259
 C  0.3979094900  0.6634385195  0.3613150116
 H  1.8798712555 -0.9693830976  0.7123600888
 H  2.5133338132  0.7056486251  0.5659717424
 H  1.9324800938 -0.1114788506 -0.8783450982
 H  0.4002219299  1.6072100718 -0.1617325646
 H  0.2579319164  0.8337203369  1.4201646325
 H -0.8650104815 -1.3355316376  0.4658380116
9
step 7
 S -0.9765542594 -0.2876709008 -0.3231886136
 C  1.7631079201  0.0370451954  0.2073505258
 C  0.3999897655  0.6625770314  0.3616072697
 H  1.8883468391 -0.9589109855  0.7106781006
 H  2.5140615043  0.7188269979  0.5665488240
 H  1.9262509984 -0.1045461067 -0.8717858888
 H  0.4034101085  1.6066020105 -0.1654190275
 H  0.2614685513  0.8323766055  1.4221331111
 H -0.8732373115 -1.3365402922  0.4704669145
9
step 8
 S -0.9751798716 -0.2877424065 -0.3229539026
 C  1.7629939793  0.0390001211  0.2110064901
 C  0.4018556843  0.6616261870  0.3620353708
 H  1.8959228620 -0.9448678014  0.7076767113
 H  2.5158732614  0.7323544079  0.5678419822
 H  1.9208452430 -0.0980142311 -0.8636472502
 H  0.4063889398  1.6068250972 -0.1687873577
 H  0.2639110835  0.8321639551  1.4245086805
 H -0.8809523102 -1.3381850806  0.4759509530
9
step 9
 S -0.9738126265 -0.2877899818 -0.3227431779
 C  1.7631519598  0.0406902861  0.2143926930
 C  0.4034821787  0.6606166942  0.3626208760
 H  1.9026579262 -0.9283264634  0.7039490433
 H  2.5181473144  0.7456113357  0.5695629671
 H  1.9164667559 -0.0920235586 -0.8545151867
 H  0.4091362966  1.6076049983 -0.1716470397
 H  0.2652130725  0.8331044681  1.4270695102
 H -0.8881525581 -1.3401647181  0.4820986420
9
step 10
 S -0.9724523098 -0.2878245751 -0.3225495420
 C  1.7636326944  0.0422898234  0.2175182202
 C  0.4048476031  0.6595844194  0.3633838875
 H  1.9086788509 -0.9106873451  0.7002443083
 H  2.5202551438  0.7579674462  0.5714197562
 H  1.9133166863 -0.0867165744 -0.8451048304
 H  0.4116306742  1.6086304389 -0.1738070331
 H  0.2653571237  0.8351841455  1.4295659376
 H -0.8948414859 -1.3421273514  0.4886712209
9
step 11
 S -0.9710987868 -0.2878579205 -0.3223654418
 C  1.7644714136  0.0439863981  0.2203898509
 C  0.4059342787  0.6585667139  0.3643419914
 H  1.9141717231 -0.8935636457  0.6974119175
 H  2.5216438938  0.7688600751  0.5731544561
 H  1.9115800502 -0.0822277647 -0.8361872431
 H  0.4138504996  1.6095918032 -0.1750970684
 H  0.2643525105  0.8383566275  1.4317494196
 H -0.9010252463 -1.3437062598  0.4954093281
9
step 12
 S -0.9697519931 -0.2879014175 -0.3221834635
 C  1.7656857520  0.0459594560  0.2230103269
 C  0.4067287916  0.6575990447  0.3655092290
 H  1.9193571297 -0.8785953992  0.6963092054
 H  2.5218982379  0.7778571143  0.5745712108
 H  1.9114114633 -0.0786736168 -0.8285005518
 H  0.4157734053  1.6102166796 -0.1753867155
 H  0.2622320067  0.8425479703  1.4334002562
 H -0.9067102091 -1.3445543825  0.5020595392
9
step 13
 S -0.9684119064 -0.2879651559 -0.3219970426
 C  1.7672772031  0.0483546397  0.2253796501
 C  0.4072220550  0.6567122555  0.3668951964
 H  1.9244486617 -0.8672004604  0.6976751978
 H  2.5207807496  0.7847015916  0.5755542480
 H  1.9129213217 -0.0761435780 -0.8226552198
 H  0.4173755447  1.6102988838 -0.1746002606
 H  0.2590481856  0.8476620320  1.4343511775
 H -0.9119015601 -1.3443742256  0.5083980414
9
step 14
 S -0.9670785222 -0.2880571509 -0.3218010445
 C  1.7692348760  0.0512584548  0.2274985910
 C  0.4074092260  0.6559306122  0.3685043453
 H  1.9296023119 -0.8603107002  0.7019932195
 H  2.5182534403  0.7893385465  0.5760776029
 H  1.9161641226 -0.0746925510 -0.8190484428
 H  0.4186311164  1.6097189275 -0.1727263970
 H  0.2548695363  0.8535859518  1.4345048395
 H -0.9166028275 -1.3429412231  0.5142497749
9
step 15
 S -0.9657518475 -0.2881828130 -0.3215921956
 C  1.7715395941  0.0546801821  0.2293722046
 C  0.4072896118  0.6552706546  0.3703355352
 H  1.9348734304 -0.8581761921  0.7093842053
 H  2.5144832566  0.7919252173  0.5762079124
 H  1.9211306401 -0.0743352993 -0.8178045531
 H  0.4195123345  1.6084550235 -0.1698224527
 H  0.2497767968  0.8601952182  1.4338441758
 H -0.9208161311 -1.3401199394  0.5195023735
9
step 16
 S -0.9644319092 -0.2883446506 -0.3213693623
 C  1.7741665123  0.0585477785  0.2310109867
 C  0.4068666746  0.6547408149  0.3723818621
 H  1.9401994098 -0.8603152909  0.7195726581
 H  2.5098321345  0.7928240398  0.5761005292
 H  1.9277453542 -0.0750431700 -0.8187549044
 H  0.4199900472  1.6065843337 -0.1660131744
 H  0.2438598394  0.8673579528  1.4324351867
 H -0.9245430052 -1.3358732467  0.5241148929
9
step 17
 S -0.9631187622 -0.2885421987 -0.3211336754
 C  1.7770857264  0.0627199360  0.2324289865
 C  0.4061481612  0.6543417971  0.3746307863
 H  1.9454157969 -0.8656322332  0.7319402924
 H  2.5048293271  0.7925758933  0.5759877420
 H  1.9358699026 -0.0767437777 -0.8214622772
 H  0.4200350244  1.6042744164 -0.1614840518
 H  0.2372152918  0.8749382101  1.4304220944
 H -0.9277856818 -1.3302647535  0.5281214947
9
step 18
 S -0.9618124843 -0.2887721695 -0.3208884936
 C  1.7802620399  0.0670104061  0.2336405295
 C  0.4051462750  0.6540677522  0.3770645606
 H  1.9502975542 -0.8726515905  0.7456447321
 H  2.5001220035  0.7918500164  0.5761569342
 H  1.9453124099 -0.0793243999 -0.8252842940
 H  0.4196196966  1.6017650601 -0.1564691225
 H  0.2299449318  0.8827982372  1.4280150611
 H -0.9305486838 -1.3234545413  0.5316300301
9
step 19
 S -0.9605131558 -0.2890288291 -0.3206391924
 C  1.7836558539  0.0712173979  0.2346582110
 C  0.4038777507  0.6539082810  0.3796609297
 H  1.9546078292 -0.8797827234  0.7597593633
 H  2.4964015468  0.7913687430  0.5769169903
 H  1.9558415053 -0.0826394543 -0.8294617938
 H  0.4187199823  1.5993412963 -0.1512334745
 H  0.2221548569  0.8907996809  1.4254711083
 H -0.9328405053 -1.3156880284  0.5348151544
9
step 20
 S -0.9592208321 -0.2893045993 -0.3203927646
 C  1.7872264835  0.0751515892  0.2354938404
 C  0.4023637123  0.6538511866  0.3823940291
 H  1.9581388220 -0.8855430100  0.7733959731
 H  2.4943088681  0.7918109535  0.5785538636
 H  1.9672030298 -0.0865215811 -0.8332146998
 H  0.4173168576  1.5972995076 -0.1460513666
 H  0.2139554558  0.8988037508  1.4230696071
 H -0.9346751626 -1.3072778186  0.5379055222
9
step 21
 S -0.9579355237 -0.2895908697 -0.3201572296
 C  1.7909375757  0.0786589049  0.2361621070
 C  0.4006292751  0.6538857165  0.3852353817
 H  1.9607379926 -0.8887096208  0.7857921999
 H  2.4943316447  0.7937073822  0.5812807830
 H  1.9791372014 -0.0907949770 -0.8358300642
 H  0.4153974744  1.5959100335 -0.1411818643
 H  0.2054621895  0.9066704461  1.4210846133
 H -0.9360734418 -1.2985788466  0.5411649017
9
step 22
 S -0.9566571919 -0.2898789784 -0.3199408712
 C  1.7947627600  0.0816363856  0.2366852557
 C  0.3987029419  0.6540058402  0.3881548879
 H  1.9623205308 -0.8884041753  0.7963644430
 H  2.4967156127  0.7973498739  0.5851933575
 H  1.9913944223 -0.0952891894 -0.8367325921
 H  0.4129558221  1.5953810887 -0.1368448101
 H  0.1967970250  0.9142571840  1.4197571328
 H -0.9370637243 -1.2899579836  0.5448677215
9
step 23
 S -0.9553857614 -0.2901612832 -0.3197513490
 C  1.7986890730  0.0840406513  0.2370966290
 C  0.3966159001  0.6542129957  0.3911217361
 H  1.9628725198 -0.8841303424  0.8047362094
 H  2.5014144054  0.8027390403  0.5902417733
 H  2.0037486747 -0.0998516952 -0.8355339737
 H  0.4099930729  1.5958295351 -0.1332004201
 H  0.1880901012  0.9214174537  1.4192708168
 H -0.9376823255 -1.2817603866  0.5492705808
9
step 24
 S -0.9541211413 -0.2904322086 -0.3195947699
 C  1.8027164246  0.0858893041  0.2374414678
 C  0.3944013251  0.6545177529  0.3941051943
 H  1.9624492029 -0.8757849545  0.8107529438
 H  2.5080935684  0.8095861500  0.5962289141
 H  2.0160081362 -0.1043580957 -0.8320615504
 H  0.4065177986  1.5972635886 -0.1303355649
 H  0.1794809472  0.9280003247  1.4197343743
 H -0.9379733235 -1.2742760318  0.5545824608
9
step 25
 S -0.9528632410 -0.2906891309 -0.3194748322
 C  1.8068530128  0.0872564858  0.2377744611
 C  0.3920937574  0.6549400142  0.3970752760
 H  1.9611710210 -0.8636560148  0.8144907879
 H  2.5161871569  0.8173681039  0.6028353165
 H  2.0280229600 -0.1087193097 -0.8263684477
 H  0.4025461960  1.5995807368 -0.1282587873
 H  0.1711184793  0.9338516284  1.4211731133
 H -0.9379878865 -1.2677107235  0.5609374278
9
step 26
 S -0.9516119680 -0.2909329575 -0.3193921757
 C  1.8111082043  0.0882643678  0.2381546455
 C  0.3897285688  0.6555076529  0.4000032796
 H  1.9592179710 -0.8484112717  0.8162611221
 H  2.5249891147  0.8254182016  0.6096635813
 H  2.0396900441 -0.1128855019 -0.8187268209
 H  0.3981023393  1.6025813666 -0.1269045661
 H  0.1631591487  0.9388173436  1.4235306057
 H -0.9377831346 -1.2621659727  0.5683740781
9
step 27
 S -0.9503671998 -0.2911682974 -0.3193440506
 C  1.8154851616  0.0890720813  0.2386390158
 C  0.3873414978  0.6562538047  0.4028622049
 H  1.9568210512 -0.8310712171  0.8166064568
 H  2.5337549874  0.8330285840  0.6162906199
 H  2.0509542379 -0.1168465527 -0.8096043982
 H  0.3932183557  1.6059956624 -0.1261456945
 H  0.1557629894  0.9427492158  1.4266798481
 H -0.9374205990 -1.2576311497  0.5768254356
9
step 28
 S -0.9491287304 -0.2914031835 -0.3193243729
 C  1.8199752474  0.0898625489  0.2392765290
 C  0.3849682246  0.6572132740  0.4056270453
 H  1.9542484855 -0.8129519889  0.8162771705
 H  2.5417936401  0.8395440639  0.6223171541
 H  2.0618050544 -0.1206287689 -0.7996233416
 H  0.3879343382  1.6095191294 -0.1258113859
 H  0.1490877864  0.9455120934  1.4304418422
 H -0.9369643814 -1.2539892969  0.5861213948
9
step 29
 S -0.9478961977 -0.2916483913 -0.3193241632
 C  1.8245553708  0.0908265242  0.2401041840
 C  0.3826439731  0.6584186300  0.4082749588
 H  1.9517845088 -0.7955595375  0.8161746912
 H  2.5485382806  0.8444364091  0.6274081187
 H  2.0722679093 -0.1242874602 -0.7895006974
 H  0.3822978202  1.6128511784 -0.1257081422
 H  0.1432820075  0.9469920377  1.4346085869
 H -0.9364791517 -1.2510354512  0.5960034841
9
step 30
 S -0.9466690084 -0.2919164709 -0.3193322946
 C  1.8291884151  0.0921428820  0.2411464918
 C  0.3804031594  0.6598965345  0.4107853325
 H  1.9497003289 -0.7804217876  0.8172489315
 H  2.5535950650  0.8473568734  0.6313220568
 H  2.0823894378 -0.1278951975 -0.7799720694
 H  0.3763627252  1.6157316051 -0.1256405431
 H  0.1384773756  0.9471040987  1.4389672116
 H -0.9360281476 -1.2485041109  0.6061494484
9
step 31
 S -0.9454462766 -0.2922206410 -0.3193364315
 C  1.8338259921  0.0939555758  0.2424186657
 C  0.3782791251  0.6616646992  0.4131397596
 H  1.9482206686 -0.7688660333  0.8203510453
 H  2.5567726437  0.8481696247  0.6339304277
 H  2.0922177033 -0.1315261859 -0.7717045210
 H  0.3701878577  1.6179710427 -0.1254297112
 H  0.1347819753  0.9457987554  1.4433223134
 H -0.9356713359 -1.2461012814  0.6162036571
9
step 32
 S -0.9442267912 -0.2925736924 -0.3193240295
 C  1.8384121592  0.0963505847  0.2439321477
 C  0.3763039926  0.6637296886  0.4153219710
 H  1.9474937826 -0.7617828229  0.8260672360
 H  2.5580969549  0.8469694394  0.6352285676
 H  2.1017798947 -0.1352382294 -0.7652099170
 H  0.3638351592  1.6194729897 -0.1249279831
 H  0.1322746128  0.9430663168  1.4475143014
 H -0.9354638632 -1.2435366002  0.6258090458
9
step 33
 S -0.9430090164 -0.2929870072 -0.3192832873
 C  1.8428866542  0.0993389765  0.2456994298
 C  0.3745086372  0.6660856388  0.4173177697
 H  1.9475748305 -0.7594473438  0.8345837349
 H  2.5578134994  0.8440848529  0.6353392042
 H  2.1110618120 -0.1390549737 -0.7607737205
 H  0.3573680324  1.6202462756 -0.1240289900
 H  0.1310009024  0.9389389194  1.4514323883
 H -0.9354548650 -1.2405520803  0.6346370690
9
step 34
 S -0.9417911143 -0.2934697589 -0.3192039811
 C  1.8471868628  0.1028523409  0.2477351049
 C  0.3729227180  0.6687139050  0.4191150246
 H  1.9484288774 -0.7614663575  0.8456355035
 H  2.5563755898  0.8400644200  0.6345074960
 H  2.1199941295 -0.1429519829 -0.7584142349
 H  0.3508499806  1.6204075892 -0.1226727616
 H  0.1309713177  0.9334900081  1.4550215832
 H -0.9356866534 -1.2369454326  0.6424134421
9
step 35
 S -0.9405709751 -0.2940283179 -0.3190781432
 C  1.8512489125  0.1067531926  0.2500524509
 C  0.3715746709  0.6715836648  0.4207037532
 H  1.9499515982 -0.7668722195  0.8585604234
 H  2.5544131715  0.8356404781  0.6330843944
 H  2.1284493737 -0.1468501238 -0.7578821105
 H  0.3443436644  1.6201739867 -0.1208456172
 H  0.1321612989  0.9268313277  1.4582834782
 H -0.9361942684 -1.2325871594  0.6489386282
9
step 36
 S -0.9393462388 -0.2946658691 -0.3189005693
 C  1.8550093058  0.1108576818  0.2526580470
 C  0.3704915717  0.6746535261  0.4220762771
 H  1.9519986254 -0.7743236255  0.8724347037
 H  2.5526748252  0.8316637688  0.6314940532
 H  2.1362508113 -0.1506183950 -0.7587006786
 H  0.3379103479  1.6198454429 -0.1185746592
 H  0.1345133908  0.9191075789  1.4612708814
 H -0.9370053691 -1.2274313431  0.6541026849
9
step 37
 S -0.9381143046 -0.2953822382 -0.3186691424
 C  1.8584086151  0.1149646287  0.2555482861
 C  0.3696988195  0.6778741423  0.4232274003
 H  1.9544132804 -0.7823393304  0.8862372431
 H  2.5519381240  0.8290057477  0.6301827519
 H  2.1431911045 -0.1540860571 -0.7602378049
 H  0.3316097097  1.6197779169 -0.1159169084
 H  0.1379412536  0.9104891113  1.4640766245
 H -0.9381404344 -1.2215203088  0.6578942227
9
step 38
 S -0.9368723343 -0.2961739232 -0.3183849603
 C  1.8613977695  0.1188847723  0.2587101978
 C  0.3692196451  0.6811916998  0.4241545527
 H  1.9570465457 -0.7895016294  0.8989953973
 H  2.5528926604  0.8284349842  0.6295524936
 H  2.1490562158 -0.1570616091 -0.7617936000
 H  0.3255000987  1.6203483131 -0.1129437010
 H  0.1423351823  0.9011633291  1.4668173514
 H -0.9396132332 -1.2149832767  0.6604030788
9
step 39
 S -0.9356172599 -0.2970343252 -0.3180522503
 C  1.8639457804  0.1224656836  0.2621261367
 C  0.3690744937  0.6845519591  0.4248578814
 H  1.9597683708 -0.7946004504  0.9098888249
 H  2.5560145665  0.8304881670  0.6298909874
 H  2.1536496046 -0.1593547821 -0.7626877007
 H  0.3196393892  1.6219140993 -0.1097218987
 H  0.1475685337  0.8913257590  1.4696137673
 H -0.9414314933 -1.2080289442  0.6618161363
9
step 40
 S -0.9343458047 -0.2979541773 -0.3176780480
 C  1.8660462786  0.1256093885  0.2657797007
 C  0.3692803553  0.6879043719  0.4253403267
 H  1.9624726436 -0.7967193788  0.9183112368
 H  2.5614643022  0.8353679977  0.6313166725
 H  2.1568130433 -0.1607977197 -0.7623340671
 H  0.3140865186  1.6247718715 -0.1062945185
 H  0.1535042934  0.8811718138  1.4725695610
 H -0.9435976555 -1.2009317858  0.6624056390
9
step 41
 S -0.9330545165 -0.2989221702 -0.3172716261
 C  1.8677199568  0.1282811644  0.2696598174
 C  0.3698501256  0.6912057163  0.4256077628
 H  1.9650789694 -0.7952799953  0.9239018642
 H  2.5690404139  0.8428997461  0.6337567827
 H  2.1584423256 -0.1612625631 -0.7602973538
 H  0.3089035521  1.6291203184 -0.1026641659
 H  0.1600009948  0.8708901183  1.4757517665
 H -0.9461095572 -1.1940118721  0.6625094881
9
step 42
 S -0.9317398098 -0.2999257671 -0.3168436660
 C  1.8690113576  0.1305096967  0.2737611575
 C  0.3707920766  0.6944227258  0.4256692772
 H  1.9675337611 -0.7900625404  0.9265600473
 H  2.5782056309  0.8525610630  0.6369659541
 H  2.1584976658 -0.1606740568 -0.7563300184
 H  0.3041578129  1.6350332723 -0.0987827375
 H  0.1669173603  0.8606578910  1.4791754818
 H -0.9489608693 -1.1876083925  0.6625035234
9
step 43
 S -0.9303980107 -0.3009521773 -0.3164052035
 C  1.8699807087  0.1323805631  0.2780809160
 C  0.3721095021  0.6975333385  0.4255376067
 H  1.9698119832 -0.7812151794  0.9264520317
 H  2.5881756916  0.8635739491  0.6405778935
 H  2.1570092102 -0.1590168925 -0.7503919050
 H  0.2999234056  1.6424474471 -0.0945499744
 H  0.1741153243  0.8506384238  1.4827954755
 H -0.9521411089 -1.1820479898  0.6627668719
9
step 44
 S -0.9290253973 -0.3019894168 -0.3159664276
 C  1.8706932828  0.1340258918  0.2826134481
 C  0.3738005737  0.7005264393  0.4252296587
 H  1.9719197065 -0.7692554531  0.9240124076
 H  2.5980416437  0.8750291576  0.6441724381
 H  2.1540779360 -0.1563380108 -0.7426541207
 H  0.2962814554  1.6511671011 -0.0898217150
 H  0.1814614322  0.8409803064  1.4865062741
 H -0.9556350990 -1.1776104396  0.6636431000
9
step 45
 S -0.9276182353 -0.3030273373 -0.3155354733
 C  1.8712091516  0.1356124093  0.2873447612
 C  0.3758584048  0.7034002452  0.4247669690
 H  1.9738964655 -0.7550579692  0.9199354402
 H  2.6068932221  0.8860111124  0.6473399587
 H  2.1498717483 -0.1527440685 -0.7334875705
 H  0.2933186209  1.6608848197 -0.0844266130
 H  0.1888269007  0.8318177915  1.4901509986
 H -0.9594218506 -1.1744957609  0.6654017490
9
step 46
 S -0.9261728041 -0.3040584695 -0.3151173917
 C  1.8715754208  0.1373283817  0.2922486798
 C  0.3782712803  0.7061597193  0.4241759190
 H  1.9758152706 -0.7398133551  0.9151448948
 H  2.6139214661  0.8957023196  0.6497319509
 H  2.1446162434 -0.1483940501 -0.7234348005
 H  0.2911238107  1.6712148219 -0.0781883608
 H  0.1960868103  0.8232716327  1.4935378099
 H -0.9634730031 -1.1727978295  0.6682061306
9
step 47
 S -0.9246854131 -0.3050785302 -0.3147134830
 C  1.8718218812  0.1393682533  0.2972860639
 C  0.3810229801  0.7088135184  0.4234875692
 H  1.9777771369 -0.7249376245  0.9107268479
 H  2.6184930621  0.9034603237  0.6510948519
 H  2.1385797126 -0.1434868926 -0.7131630564
 H  0.2897834190  1.6817334756 -0.0709496452
 H  0.2031189346  0.8154498308  1.4964616613
 H -0.9677511445 -1.1724893255  0.6720931827
9
step 48
 S -0.9231524069 -0.3060864919 -0.3143211211
 C  1.8719600746  0.1419132259  0.3024078592
 C  0.3840931142  0.7113709639  0.4227370537
 H  1.9798968647 -0.7119140867  0.9078125595
 H  2.6201992462  0.9088700881  0.6512895523
 H  2.1320526956 -0.1382442789 -0.7033976819
 H  0.2893756545  1.6920213736 -0.0625942943
 H  0.2098026342  0.8084479264  1.4987284250
 H -0.9722084431 -1.1734211049  0.6769693555
9
step 49
 S -0.9215701638 -0.3070841961 -0.3139341065
 C  1.8719851374  0.1451074073  0.3075616595
 C  0.3874573928  0.7138394075  0.4219625805
 H  1.9822787416 -0.7020691543  0.9074130517
 H  2.6188862024  0.9117782229  0.6503009151
 H  2.1253237022 -0.1328895148 -0.6948386535
 H  0.2899646573  1.7017021456 -0.0530650653
 H  0.2160181207  0.8023486922  1.5001784131
 H -0.9767860248 -1.1753362621  0.6826233212
9
step 50
 S -0.9199350934 -0.3080755841 -0.3135434723
 C  1.8718793229  0.1490324881  0.3126997251
 C  0.3910877815  0.7162221986  0.4212041622
 H  1.9849856314 -0.6963200713  0.9102341565
 H  2.6146729123  0.9123140304  0.6482408355
 H  2.1186542616 -0.1276245291 -0.6880687263
 H  0.2915950893  1.7104746084 -0.0423757609
 H  0.2216463155  0.7972212174  1.5007067379
 H -0.9814143889 -1.1778962443  0.6887529018
9
step 51
 S -0.9182436385 -0.3090656863 -0.3131385941
 C  1.8716158529  0.1536875595  0.3177848642
 C  0.3949525369  0.7185173332  0.4205022402
 H  1.9880109036 -0.6949698742  0.9165277111
 H  2.6079581124  0.9108978121  0.6453460973
 H  2.1122575720 -0.1226081567 -0.6834676223
 H  0.2942878116  1.7181362833 -0.0306173524
 H  0.2265695160  0.7931194455  1.5002785852
 H -0.9860149632 -1.1807144290  0.6950012242
9
step 52
 S -0.9164922764 -0.3100595382 -0.3127084226
 C  1.8711620613  0.1589816990  0.3227909667
 C  0.3990161697  0.7207168003  0.4198963542
 H  1.9912650970 -0.6976297144  0.9260370610
 H  2.5994117919  0.9082308716  0.6419692960
 H  2.1062849782 -0.1179394942 -0.6811500381
 H  0.2980371561  1.7245972906 -0.0179582742
 H  0.2306730648  0.7900802840  1.4989380284
 H -0.9905027205 -1.1833921105  0.7009964070
9
step 53
 S -0.9146775068 -0.3110611751 -0.3122426778
 C  1.8704818977  0.1647435262  0.3276980049
 C  0.4032394179  0.7228066546  0.4194239784
 H  1.9945841334 -0.7033023897  0.9380601602
 H  2.5899401795  0.9052558971  0.6385582657
 H  2.1008229634 -0.1136497820 -0.6809430937
 H  0.3028101451  1.7298839873 -0.0046391120
 H  0.2338481183  0.7881215349  1.4968093820
 H -0.9947896555 -1.1855526314  0.7063898411
9
step 54
 S -0.9127958129 -0.3120728110 -0.3117328880
 C  1.8695392743  0.1707460242  0.3324850325
 C  0.4075792913  0.7247678782  0.4191196181
 H  1.9977557894 -0.7105901884  0.9516017273
 H  2.5806095486  0.9030738107  0.6356182279
 H  2.0959006489 -0.1097047799 -0.6824103025
 H  0.3085478085  1.7341316984  0.0090381108
 H  0.2359954148  0.7872400691  1.4940904102
 H -0.9987888270 -1.1868707614  0.7108895802
9
step 55
 S -0.9108436001 -0.3130942532 -0.3111732057
 C  1.8683042847  0.1767405582  0.3371259983
 C  0.4119891850  0.7265780855  0.4190142423
 H  2.0005536655 -0.7179467989  0.9655551287
 H  2.5725184475  0.9028082291  0.6336533187
 H  2.0915050542 -0.1060172628 -0.6849169432
 H  0.3151684795  1.7375660181  0.0227256080
 H  0.2370297714  0.7874107585  1.4910372122
 H -1.0024186034 -1.1870957475  0.7142868282
9
step 56
 S -0.9088171291 -0.3141225547 -0.3105609776
 C  1.8667630848  0.1824929306  0.3415910469
 C  0.4164190005  0.7282140588  0.4191351015
 H  2.0027678622 -0.7239003259  0.9788611944
 H  2.5666247699  0.9054255619  0.6330917056
 H  2.0875997941 -0.1024668831 -0.6877212931
 H  0.3225726574  1.7404729221  0.0360494816
 H  0.2368849965  0.7885865883  1.4879414570
 H -1.0056067341 -1.1860674446  0.7164746423
9
step 57
 S -0.9067124729 -0.3151518814 -0.3098970719
 C  1.8649294531  0.1878150500  0.3458523378
 C  0.4208152255  0.7296549643  0.4195059276
 H  2.0042268520 -0.7272117472  0.9906191896
 H  2.5635614791  0.9115454857  0.6342095553
 H  2.0841430639 -0.0989231927 -0.6900721373
 H  0.3306487365  1.7431594805  0.0486317404
 H  0.2355189857  0.7907001078  1.4851017587
 H -1.0082939220 -1.1837255323  0.7174587032
9
step 58
 S -0.9045255203 -0.3161735721 -0.3091859710
 C  1.8628534614  0.1925869390  0.3498908625
 C  0.4251210084  0.7308859317  0.4201474302
 H  2.0048106143 -0.7269684102  1.0001510911
 H  2.5634978766  0.9212987485  0.6370771503
 H  2.0811022451 -0.0952675795 -0.6912960094
 H  0.3392787111  1.7459090559  0.0601126410
 H  0.2329188282  0.7936660815  1.4827921605
 H -1.0104366588 -1.1801120399  0.7173602755
9
step 59
 S -0.9022520287 -0.3171763838 -0.3084356263
 C  1.8606225310  0.1967658350  0.3537006052
 C  0.4292763824  0.7319015127  0.4210779183
 H  2.0044580189 -0.7226302001  1.0070331813
 H  2.5660998398  0.9342855104  0.6415471942
 H  2.0784642332 -0.0914110452 -0.6908646750
 H  0.3483429286  1.7489369314  0.0701711783
 H  0.2291056606  0.7973850284  1.4812316681
 H -1.0120091478 -1.1753672512  0.7164113295
9
step 60
 S -0.8998877168 -0.3181469400 -0.3076570527
 C  1.8583531569  0.2003826538  0.3572882771
 C  0.4332188425  0.7327084171  0.4223138241
 H  2.0031715904 -0.7140483734  1.0111102102
 H  2.5706051777  0.9496505798  0.6472894142
 H  2.0762417871 -0.0873063950 -0.6884403201
 H  0.3577231339  1.7523535436  0.0785417535
 H  0.2241387283  0.8017473195  1.4805592415
 H -1.0130041424 -1.1697186969  0.7149413759
9
step 61
 S -0.8974283762 -0.3190704037 -0.3068636265
 C  1.8561757835  0.2035297223  0.3606692092
 C  0.4368844273  0.7333269392  0.4238699033
 H  2.0010213582 -0.7014707520  1.0125022957
 H  2.5759819643  0.9662440537  0.6538569101
 H  2.0744765844 -0.0829547710 -0.6839000965
 H  0.3673034005  1.7561421526  0.0850255204
 H  0.2181178281  0.8066375977  1.4808183479
 H -1.0134324781 -1.1634627240  0.7133552803
9
step 62
 S -0.8948699900 -0.3199313812 -0.3060700668
 C  1.8542177247  0.2063450639  0.3638613920
 C  0.4402093276  0.7337906701  0.4257589466
 H  1.9981475874 -0.6855373799  1.0116073515
 H  2.5811121452  0.9828100860  0.6607609964
 H  2.0732394778 -0.0784071403 -0.6773426845
 H  0.3769690274  1.7601555135  0.0894956497
 H  0.2111831992  0.8119393950  1.4819539118
 H -1.0133210793 -1.1569384409  0.7121016300
9
step 63
 S -0.8922088508 -0.3207150261 -0.3052911210
 C  1.8525885637  0.2089969412  0.3668798030
 C  0.4431318972  0.7341444240  0.4279909462
 H  1.9947603737 -0.6672605016  1.0090939917
 H  2.5849511704  0.9981542798  0.6675356866
 H  2.0726280345 -0.0737613635 -0.6690784185
 H  0.3866039543  1.7641323495  0.0918966259
 H  0.2035121421  0.8175398839  1.4838224128
 H -1.0127093579 -1.1504948990  0.7116324379
9
step 64
 S -0.8894416782 -0.3214082523 -0.3045400499
 C  1.8513704150  0.2116692911  0.3697327103
 C  0.4455948433  0.7344406760  0.4305717943
 H  1.9911326369 -0.6479733720  1.0058724610
 H  2.5866409600  1.0112662610  0.6737836673
 H  2.0727610730 -0.0691551386 -0.6596027850
 H  0.3960875621  1.7677303898  0.0922384919
 H  0.1953121278  0.8233347067  1.4862135022
 H -1.0116442265 -1.1444540877  0.7123570015
9
step 65
 S -0.8865657326 -0.3220009120 -0.3038270840
 C  1.8506134752  0.2145461641  0.3724211937
 C  0.4475473461  0.7347350850  0.4335017048
 H  1.9875824666 -0.6292268171  1.0030261577
 H  2.5855772693  1.0213977119  0.6792046837
 H  2.0737697386 -0.0647547885 -0.6495520501
 H  0.4052917577  1.7705697738  0.0905874505
 H  0.1868107655  0.8292327847  1.4888795520
 H -1.0101743501 -1.1390742125  0.7145950972
9
step 66
 S -0.8835789241 -0.3224867554 -0.3031580808
 C  1.8503361127  0.2177926183  0.3749426307
 C  0.4489469002  0.7350817760  0.4367736077
 H  1.9844421304 -0.6126167234  1.0016884692
 H  2.5814442808  1.0281081183  0.6836116047
 H  2.0757847808 -0.0607397987 -0.6396403375
 H  0.4140790432  1.7722795799  0.0870543575
 H  0.1782435328  0.8351609214  1.4915685607
 H -1.0083446054 -1.1345190182  0.7185364578
9
step 67
 S -0.8804799156 -0.3228640008 -0.3025336222
 C  1.8505281386  0.2215312899  0.3772977706
 C  0.4497607668  0.7355289799  0.4403717593
 H  1.9820155406 -0.5995472638  1.0028654595
 H  2.5742304724  1.0312918058  0.6869398259
 H  2.0789202193 -0.0572833752 -0.6305801787
 H  0.4223019816  1.7725410205  0.0817824788
 H  0.1698405082  0.8410679251  1.4940559384
 H -1.0061918413 -1.1308388005  0.7242136758
9
step 68
 S -0.8772682206 -0.3231354076 -0.3019487242
 C  1.8511555349  0.2258176866  0.3794989966
 C  0.4499670347  0.7361154398  0.4442707644
 H  1.9805331075 -0.5909736728  1.0072357652
 H  2.5642350285  1.0311948600  0.6892538355
 H  2.0832545486 -0.0545301315 -0.6229932512
 H  0.4298042728  1.7711227020  0.0749355835
 H  0.1618134114  0.8469279151  1.4961715876
 H -1.0037428208 -1.1279668749  0.7314937833
9
step 69
 S -0.8739442882 -0.3233078453 -0.3013932153
 C  1.8521649227  0.2306211876  0.3815755084
 C  0.4495553599  0.7368678041  0.4484351512
 H  1.9801185863 -0.5872049007  1.0149903546
 H  2.5520664095  1.0284223925  0.6907517175
 H  2.0888119391 -0.0525732667 -0.6173236280
 H  0.4364235718  1.7679053321  0.0666871231
 H  0.1543441159  0.8527424821  1.4978198865
 H -1.0010147053 -1.1257321016  0.7400901857
9
step 70
 S -0.8705095496 -0.3233914589 -0.3008527011
 C  1.8534868975  0.2358196050  0.3835716174
 C  0.4485274323  0.7377991034  0.4528196173
 H  1.9807806953 -0.5878453741  1.0257778749
 H  2.5386257055  1.0239269140  0.6917643629
 H  2.0955471325 -0.0514349495 -0.6137700932
 H  0.4419960863  1.7628946934  0.0572109916
 H  0.1475755557  0.8585414260  1.4989911875
 H -0.9980178127 -1.1238847364  0.7495926335
9
step 71
 S -0.8669663933 -0.3233985893 -0.3003099343
 C  1.8550390547  0.2412114665  0.3855381227
 C  0.4468971191  0.7389083864  0.4573700275
 H  1.9824316143 -0.5919011851  1.0387808492
 H  2.5250587901  1.0189591178  0.6927416690
 H  2.1033381214 -0.0510544085 -0.6122538966
 H  0.4463627253  1.7562224680  0.0466742594
 H  0.1416057488  0.8643818702  1.4997640572
 H -0.9947598738 -1.1221305744  0.7595098290
9
step 72
 S -0.8633180475 -0.3233426268 -0.2997463637
 C  1.8567311248  0.2465443246  0.3875214290