9
step 0
 S -0.9863770252 -0.2861772190 -0.3256520125
 C  1.7669537951  0.0101010382  0.1749741379
 C  0.3825726038  0.6663449850  0.3612285964
 H  1.8140585908 -0.9475611155  0.6859244123
 H  2.5450610667  0.6494014487  0.5831308295
 H  1.9778506886 -0.1558894605 -0.8773562625
 H  0.3781434647  1.6318021743 -0.1394195119
 H  0.2200746102  0.8595477172  1.4207363203
 H -0.8069377621 -1.3473695636  0.4566335011
9
step 1
 S -0.9849561525 -0.2864731736 -0.3252353686
 C  1.7663283187  0.0151199149  0.1800823270
 C  0.3853141574  0.6660579750  0.3611420649
 H  1.8260963313 -0.9585770913  0.6936971169
 H  2.5363935167  0.6564707693  0.5783830881
 H  1.9699301221 -0.1484329065 -0.8810617976
 H  0.3820261891  1.6258768402 -0.1429690193
 H  0.2275630036  0.8539651366  1.4195175412
 H -0.8172954537 -1.3438074596  0.4566440579
9
step 2
 S -0.9835393703 -0.2867558826 -0.3248289301
 C  1.7657015021  0.0199402409  0.1851189219
 C  0.3880223709  0.6657301287  0.3610719164
 H  1.8379384835 -0.9680108538  0.7007174431
 H  2.5284432340  0.6640285748  0.5740357436
 H  1.9620488998 -0.1409702382 -0.8840234849
 H  0.3858699312  1.6203322370 -0.1465673451
 H  0.2348295901  0.8486233213  1.4185337882
 H -0.8275105740 -1.3405764412  0.4569573017
9
step 3
 S -0.9821282882 -0.2870138665 -0.3244414816
 C  1.7650768785  0.0243987354  0.1900200507
 C  0.3906667358  0.6653255614  0.3610352021
 H  1.8493981483 -0.9745589316  0.7063938228
 H  2.5218365508  0.6725190146  0.5704359167
 H  1.9542613610 -0.1335031136 -0.8856029089
 H  0.3896414222  1.6154974841 -0.1502545934
 H  0.2416729425  0.8437432070  1.4179917465
 H -0.8374705917 -1.3379650904  0.4578489484
9
step 4
 S -0.9807240342 -0.2872380478 -0.3240802227
 C  1.7644687025  0.0283755657  0.1947290085
 C  0.3932161185  0.6648170954  0.3610502436
 H  1.8602992148 -0.9772702479  0.7103234059
 H  2.5170260578  0.6822508866  0.5678348557
 H  1.9466540374 -0.1260587714 -0.8853250312
 H  0.3933089950  1.6116237157 -0.1540407882
 H  0.2479075325  0.8395250949  1.4180445660
 H -0.8470817470 -1.3361928249  0.4595413995
9
step 5
 S -0.9793272550 -0.2874227153 -0.3237500923
 C  1.7639060497  0.0318041461  0.1992018570
 C  0.3956393378  0.6641891451  0.3611365774
 H  1.8704897095 -0.9755899933  0.7123073363
 H  2.5142180649  0.6933314847  0.5663545753
 H  1.9393470405 -0.1186930032 -0.8829199137
 H  0.3968430795  1.6088556230 -0.1578926149
 H  0.2533696883  0.8361405542  1.4187711607
 H -0.8562731118 -1.3353806244  0.4621837255
9
step 6
 S -0.9779381788 -0.2875661036 -0.3234533078
 C  1.7634336629  0.0346756331  0.2034105010
 C  0.3979056484  0.6634392403  0.3613149846
 H  1.8798548871 -0.9693769646  0.7123529961
 H  2.5133417279  0.7056343277  0.5659760770
 H  1.9324913734 -0.1114899370 -0.8783447505
 H  0.4002163861  1.6072162602 -0.1617269174
 H  0.2579224062  0.8337268344  1.4201647507
 H -0.8649957897 -1.3355346485  0.4658356968
9
step 7
 S -0.9765567352 -0.2876705219 -0.3231892332
 C  1.7631088501  0.0370383607  0.2073424253
 C  0.3999854137  0.6625779604  0.3616071650
 H  1.8883284679 -0.9589072281  0.7106712361
 H  2.5140692505  0.7188093463  0.5665530484
 H  1.9262637583 -0.1045588781 -0.8717871612
 H  0.4034037716  1.6066083590 -0.1654124357
 H  0.2614581669  0.8323834394  1.4221327210
 H -0.8732204916 -1.3365430908  0.4704634496
9
step 8
 S -0.9751826956 -0.2877420069 -0.3229545817
 C  1.7629949058  0.0389927831  0.2109974831
 C  0.4018508819  0.6616273426  0.3620351524
 H  1.8959027583 -0.9448673899  0.7076704355
 H  2.5158806076  0.7323333485  0.5678459348
 H  1.9208592533 -0.0980285689 -0.8636505630
 H  0.4063818674  1.6068314046 -0.1687799013
 H  0.2639001093  0.8321708388  1.4245076786
 H -0.8809334721 -1.3381875366  0.4759461401
9
step 9
 S -0.9738157974 -0.2877895662 -0.3227439112
 C  1.7631528010  0.0406825220  0.2143828450
 C  0.4034769924  0.6606180866  0.3626205022
 H  1.9026363418 -0.9283301781  0.7039436159
 H  2.5181541884  0.7455869870  0.5695665516
 H  1.9164817390 -0.0920393107 -0.8545208277
 H  0.4091285533  1.6076111331 -0.1716388489
 H  0.2652018074  0.8331111089  1.4270678494
 H -0.8881318151 -1.3401667832  0.4820923381
9
step 10
 S -0.9724558262 -0.2878241452 -0.3225503257
 C  1.7636333566  0.0422816715  0.2175075931
 C  0.4048421054  0.6595860496  0.3633833115
 H  1.9086559898 -0.9106956724  0.7002398397
 H  2.5202616215  0.7579400928  0.5714229358
 H  1.9133323190 -0.0867335561 -0.8451129163
 H  0.4116223317  1.6086363463 -0.1737982881
 H  0.2653458728  0.8351902529  1.4295636338
 H -0.8948189556 -1.3421290685  0.4886633471
9
step 11
 S -0.9711026471 -0.2878574752 -0.3223662743
 C  1.7644717979  0.0439778506  0.2203785051
 C  0.4059285465  0.6585685740  0.3643411618
 H  1.9141477111 -0.8935766768  0.6974083198
 H  2.5216501704  0.7688301420  0.5731572416
 H  1.9115959681 -0.0822457619 -0.8361976940
 H  0.4138416365  1.6095975018 -0.1750879931
 H  0.2643415780  0.8383619224  1.4317465500
 H -0.9010010527 -1.3437077610  0.4953998723
9
step 12
 S -0.9697561955 -0.2879009530 -0.3221843449
 C  1.7656857607  0.0459504562  0.2229983235
 C  0.4067229048  0.6576011186  0.3655080910
 H  1.9193319906 -0.8786127609  0.6963061564
 H  2.5219045902  0.7778251281  0.5745736458
 H  1.9114272683 -0.0786923910 -0.8285130877
 H  0.4157641068  1.6102222511 -0.1753775663
 H  0.2622216887  0.8425521918  1.4333969525
 H -0.9066844832 -1.3445558793  0.5020485511
9
step 13
 S -0.9684164486 -0.2879646662 -0.3219979744
 C  1.7672767448  0.0483450861  0.2253670533
 C  0.4072160950  0.6567145202  0.3668936929
 H  1.9244223117 -0.8672213206  0.6976721406
 H  2.5207874949  0.7846681351  0.5755563935
 H  1.9129365915 -0.0761628725 -0.8226693844
 H  0.4173659028  1.6103044554 -0.1745913126
 H  0.2590387636  0.8476649439  1.4343476127
 H -0.9118744405 -1.3443759933  0.5083856230
9
step 14
 S -0.9670834018 -0.2880566284 -0.3218020293
 C  1.7692338679  0.0512482146  0.2274854679
 C  0.4074032743  0.6559330399  0.3685024185
 H  1.9295745815 -0.8603338762  0.7019894140
 H  2.5182608950  0.7893042078  0.5760795224
 H  1.9161784235 -0.0747120988 -0.8190636547
 H  0.4186212299  1.6097246521 -0.1727179274
 H  0.2548612720  0.8535873474  1.4345012118
 H -0.9165744599 -1.3429435807  0.5142360665
9
step 15
 S -0.9657570618 -0.2881822489 -0.3215932367
 C  1.7715379615  0.0546691128  0.2293586223
 C  0.4072837489  0.6552732143  0.3703331277
 H  1.9348441145 -0.8582003544  0.7093788309
 H  2.5144916946  0.7918905373  0.5762096572
 H  1.9211435413 -0.0743548320 -0.8178201791
 H  0.4195023088  1.6084610567 -0.1698147244
 H  0.2497699276  0.8601949236  1.4338406901
 H -0.9207866662 -1.3401232280  0.5194875379
9
step 16
 S -0.9644374555 -0.2883440359 -0.3213704632
 C  1.7741641866  0.0585357531  0.2309970091
 C  0.4068609789  0.6547434746  0.3723789188
 H  1.9401683310 -0.8603392047  0.7195649411
 H  2.5098417462  0.7927894587  0.5761021225
 H  1.9277564434 -0.0750624279 -0.8187703429
 H  0.4199799945  1.6065908116 -0.1660064190
 H  0.2438545754  0.8673558290  1.4324320358
 H -0.9245125962 -1.3358778074  0.5240990984
9
step 17
 S -0.9631246377 -0.2885415245 -0.3211348388
 C  1.7770826443  0.0627068653  0.2324146714
 C  0.4061427079  0.6543445252  0.3746272556
 H  1.9453828616 -0.8656549599  0.7319296183
 H  2.5048401806  0.7925416997  0.5759891637
 H  1.9358788014 -0.0767625210 -0.8214770357
 H  0.4200250628  1.6042814351 -0.1614784549
 H  0.2372118134  0.8749341538  1.4304194413
 H -0.9277544811 -1.3302709057  0.5281048969
9
step 18
 S -0.9618186863 -0.2887714278 -0.3208897217
 C  1.7802581432  0.0669962514  0.2336259282
 C  0.4051411346  0.6540705196  0.3770603953
 H  1.9502627839 -0.8726725983  0.7456307128
 H  2.5001340121  0.7918163060  0.5761581066
 H  1.9453187872 -0.0793424200 -0.8252980472
 H  0.4196099491  1.6017726583 -0.1564648106
 H  0.2299433886  0.8827921808  1.4280130231
 H -0.9305168384 -1.3234625619  0.5316127546
9
step 19
 S -0.9605196816 -0.2890280133 -0.3206404857
 C  1.7836510914  0.0712021750  0.2346433696
 C  0.4038729879  0.6539110620  0.3796560885
 H  1.9545713657 -0.8798019015  0.7597418550
 H  2.4964144522  0.7913353964  0.5769177697
 H  1.9558450883 -0.0826565840 -0.8294744155
 H  0.4187105750  1.5993494446 -0.1512305064
 H  0.2221553671  0.8907915924  1.4254697452
 H -0.9328081529 -1.3156981342  0.5347972802
9
step 20
 S -0.9592276795 -0.2893037046 -0.3203941218
 C  1.7872208120  0.0751353636  0.2354788014
 C  0.4023593849  0.6538539597  0.3823884773
 H  1.9581009115 -0.8855606159  0.7733750562
 H  2.4943222482  0.7917776441  0.5785540415
 H  1.9672036106 -0.0865377015 -0.8332262662
 H  0.4173079178  1.5973081053 -0.1460497299
 H  0.2139581064  0.8987936327  1.4230689146
 H -0.9346424268 -1.3072901514  0.5378870674
9
step 21
 S -0.9579426907 -0.2895898932 -0.3201586472
 C  1.7909309604  0.0786417808  0.2361469089
 C  0.4006254325  0.6538884639  0.3852290916
 H  1.9606989593 -0.8887261985  0.7857681405
 H  2.4943449520  0.7936736209  0.5812801016
 H  1.9791346395 -0.0908100216 -0.8358408352
 H  0.4153891286  1.5959189149 -0.1411814788
 H  0.2054670365  0.9066583348  1.4210845222
 H -0.9360404282 -1.2985934641  0.5411458140
9
step 22
 S -0.9566646770 -0.2898779193 -0.3199423435
 C  1.7947551717  0.0816184919  0.2366699317
 C  0.3986996247  0.6540085466  0.3881478394
 H  1.9622807480 -0.8884204691  0.7963376487
 H  2.4967282424  0.7973150879  0.5851915395
 H  1.9913886437 -0.0953031428 -0.8367429760
 H  0.4129481936  1.5953900391 -0.1368455376
 H  0.1968040932  0.9142431502  1.4197575152
 H -0.9370305176 -1.2899748574  0.5448478741
9
step 23
 S -0.9553935635 -0.2901601421 -0.3197528683
 C  1.7986804845  0.0840221261  0.2370812034
 C  0.3966131393  0.6542156461  0.3911139170
 H  1.9628323821 -0.8841472193  0.8047071872
 H  2.5014257791  0.8027026719  0.5902385606
 H  2.0037396674 -0.0998645893 -0.8355444829
 H  0.4099862802  1.5958383144 -0.1332020801
 H  0.1880993833  0.9214016026  1.4192714975
 H -0.9376489875 -1.2817794080  0.5492497771
9
step 24
 S -0.9541292595 -0.2904309877 -0.3195963267
 C  1.8027068071  0.0858702803  0.2374259523
 C  0.3943991419  0.6545203300  0.3940966003
 H  1.9624091010 -0.8758033356  0.8107222599
 H  2.5081032128  0.8095477511  0.5962241072
 H  2.0159959433 -0.1043700012 -0.8320727534
 H  0.4065119537  1.5972719602 -0.1303379549
 H  0.1794924030  0.9279827976  1.4197351466
 H -0.9379398929 -1.2742970266  0.5545604477
9
step 25
 S -0.9528716748 -0.2906878324 -0.3194764164
 C  1.8068423344  0.0872370790  0.2377588520
 C  0.3920921631  0.6549424959  0.3970659109
 H  1.9611313180 -0.8636768109  0.8144590259
 H  2.5161947598  0.8173274057  0.6028288045
 H  2.0280076696 -0.1087303263 -0.8263809190
 H  0.4025414025  1.5995884959 -0.1282617037
 H  0.1711320334  0.9338326038  1.4211737569
 H -0.9379543800 -1.2677334744  0.5609139178
9
step 26
 S -0.9516207169 -0.2909315833 -0.3193937770
 C  1.8110964305  0.0882446668  0.2381389227
 C  0.3897275651  0.6555100096  0.3999931549
 H  1.9591789793 -0.8484353155  0.8162288357
 H  2.5249945486  0.8253751478  0.6096553566
 H  2.0396717775 -0.1128957459 -0.8187410916
 H  0.3980986912  1.6025883642 -0.1269078242
 H  0.1631746896  0.9387970378  1.4235309039
 H -0.9377495496 -1.2621902461  0.5683487783
9
step 27
 S -0.9503762635 -0.2911668478 -0.3193456600
 C  1.8154722589  0.0890521409  0.2386231438
 C  0.3873410772  0.6562559982  0.4028513401
 H  1.9567830104 -0.8310991856  0.8165741113
 H  2.5337583034  0.8329833286  0.6162807782
 H  2.0509331355 -0.1168561434 -0.8096209087
 H  0.3932159352  1.6060018213 -0.1261491442
 H  0.1557803679  0.9427278818  1.4266796026
 H -0.9373869177 -1.2576567238  0.5767980797
9
step 28
 S -0.9491381083 -0.2914016565 -0.3193259833
 C  1.8199611884  0.0898423839  0.2392604611
 C  0.3849683705  0.6572152568  0.4056154668
 H  1.9542115422 -0.8129843163  0.8162450744
 H  2.5417950413  0.8394969433  0.6223058824
 H  2.0617812610 -0.1206378153 -0.7996423981
 H  0.3879332141  1.6095244493 -0.1258149218
 H  0.1491068167  0.9454900182  1.4304408831
 H -0.9369305748 -1.2540159862  0.5860917733
9
step 29
 S -0.9479058891 -0.2916467825 -0.3193257704
 C  1.8245401388  0.0908061050  0.2400878669
 C  0.3826446607  0.6584203459  0.4082627001
 H  1.9517487022 -0.7955963285  0.8161429246
 H  2.5485380853  0.8443878981  0.6273956768
 H  2.0722415591 -0.1242960476 -0.7895224381
 H  0.3822980464  1.6128557324 -0.1257117087
 H  0.1433024689  0.9469695371  1.4346067790
 H -0.9364451841 -1.2510631243  0.5959714689
9
step 30
 S -0.9466790122 -0.2919147725 -0.3193338978
 C  1.8291720080  0.0921221330  0.2411298715
 C  0.3804043561  0.6598979203  0.4107724330
 H  1.9496655875 -0.7804627554  0.8172172901
 H  2.5535936666  0.8473075345  0.6313087545
 H  2.0823606435 -0.1279033773 -0.7799964452
 H  0.3763643392  1.6157355264 -0.1256441332
 H  0.1384990168  0.9470815102  1.4389644553
 H -0.9359939802 -1.2485326995  0.6061150089
9
step 31
 S -0.9454565915 -0.2922188425 -0.3193380338
 C  1.8338084250  0.0939343793  0.2424016914
 C  0.3782807915  0.6616656867  0.4131262644
 H  1.9481868222 -0.7689104943  0.8203190278
 H  2.5567704710  0.8481200543  0.6339166014
 H  2.0921865500 -0.1315339698 -0.7717312982
 H  0.3701908798  1.6179745059 -0.1254333617
 H  0.1348045196  0.9457764295  1.4433185425
 H -0.9356369299 -1.2461307808  0.6161668660
9
step 32
 S -0.9442374157 -0.2925717804 -0.3193256375
 C  1.8383934634  0.0963287929  0.2439147720
 C  0.3763060828  0.6637302071  0.4153079294
 H  1.9474605914 -0.7618297764  0.8260340983
 H  2.5580944323  0.8469202109  0.6352145551
 H  2.1017464429 -0.1352455901 -0.7652387050
 H  0.3638395925  1.6194761875 -0.1249317666
 H  0.1322977654  0.9430446069  1.4475094777
 H -0.9354291815 -1.2435670628  0.6257700754
9
step 33
 S -0.9430199490 -0.2929849664 -0.3192849108
 C  1.8428668759  0.0993164305  0.2456816054
 C  0.3745110993  0.6660856182  0.4173032350
 H  1.9475420253 -0.7594956314  0.8345486128
 H  2.5578110051  0.8440364580  0.6353253185
 H  2.1110261080 -0.1390618535 -0.7608040240
 H  0.3573738635  1.6202493938 -0.1240330040
 H  0.1310243576  0.9389181722  1.4514264955
 H -0.9354198732 -1.2405836032  0.6345961797
9
step 34
 S -0.9418023535 -0.2934675724 -0.3192056326
 C  1.8471660607  0.1028288943  0.2477167807
 C  0.3729254948  0.6687132787  0.4191000527
 H  1.9483961993 -0.7615148604  0.8455975718
 H  2.5563734116  0.8400172078  0.6344939962
 H  2.1199562243 -0.1429583086 -0.7584455227
 H  0.3508571808  1.6204107815 -0.1226771173
 H  0.1309947671  0.9334705536  1.4550146192
 H -0.9356513191 -1.2369781435  0.6423709648
9
step 35
 S -0.9405825198 -0.2940259677 -0.3190798375
 C  1.8512271570  0.1067287330  0.2500335687
 C  0.3715777003  0.6715823723  0.4206884016
 H  1.9499188275 -0.7669200316  0.8585190419
 H  2.5544114607  0.8355945958  0.6330714570
 H  2.1284093444 -0.1468558266 -0.7579138892
 H  0.3443521917  1.6201773508 -0.1208504278
 H  0.1321844394  0.9268134704  1.4582754488
 H -0.9361585602 -1.2326211996  0.6488949419
9
step 36
 S -0.9393580884 -0.2946633370 -0.3189023223
 C  1.8549866785  0.1108321450  0.2526385418
 C  0.3704947865  0.6746515156  0.4220606037
 H  1.9519655957 -0.7743701573  0.8723895089
 H  2.5526735568  0.8316191148  0.6314817466
 H  2.1362087805 -0.1506234307 -0.7587325557
 H  0.3379201491  1.6198490006 -0.1185800292
 H  0.1345359311  0.9190915907  1.4612617938
 H -0.9369692541 -1.2274668513  0.6540581923
9
step 37
 S -0.9381264591 -0.2953795066 -0.3186709703
 C  1.8583852095  0.1149380046  0.2555280898
 C  0.3697021481  0.6778713729  0.4232114625
 H  1.9543798788 -0.7823843358  0.8861881759
 H  2.5519370734  0.8289619502  0.6301710221
 H  2.1431472539 -0.1540904231 -0.7602695328
 H  0.3316207226  1.6197815995 -0.1159229255
 H  0.1379629211  0.9104752262  1.4640664841
 H -0.9381038760 -1.2215574057  0.6578493234
9
step 38
 S -0.9368847944 -0.2961709754 -0.3183868793
 C  1.8613736894  0.1188571013  0.2586892427
 C  0.3692230116  0.6811881424  0.4241384063
 H  1.9570127051 -0.7895451765  0.8989426799
 H  2.5528914128  0.8283914214  0.6295411698
 H  2.1490107915 -0.1570653547 -0.7618250951
 H  0.3255122544  1.6203519549 -0.1129504315
 H  0.1423557269  0.9011517395  1.4668061598
 H -0.9395761878 -1.2150220497  0.6603581419
9
step 39
 S -0.9356300278 -0.2970311461 -0.3180542748
 C  1.8639211363  0.1224370464  0.2621043580
 C  0.3690778185  0.6845475971  0.4248415795
 H  1.9597340604 -0.7946428646  0.9098329098
 H  2.5560125678  0.8304440373  0.6298798118
 H  2.1536029139 -0.1593580114 -0.7627190404
 H  0.3196526134  1.6219174412 -0.1097293890
 H  0.1475877318  0.8913166149  1.4696015239
 H -0.9413939070 -1.2080694344  0.6617714738
9
step 40
 S -0.9343588838 -0.2979507538 -0.3176801905
 C  1.8660211810  0.1255798907  0.2657570357
 C  0.3692835558  0.6878992002  0.4253239195
 H  1.9624378591 -0.7967611798  0.9182527478
 H  2.5614609479  0.8353224333  0.6313053509
 H  2.1567654455 -0.1608005875 -0.7623654691
 H  0.3141007332  1.6247745758 -0.1063028016
 H  0.1535219493  0.8811652227  1.4725562674
 H -0.9435594610 -1.2009739769  0.6623614815
9
step 41
 S -0.9330679114 -0.2989184921 -0.3172738961
 C  1.8676945087  0.1282509196  0.2696362039
 C  0.3698531169  0.6911997397  0.4255912969
 H  1.9650437262 -0.7953218388  0.9238415377
 H  2.5690351560  0.8428519449  0.6337450422
 H  2.1583942175 -0.1612652646 -0.7603291453
 H  0.3089186743  1.6291219941 -0.1026732740
 H  0.1600169414  0.8708861466  1.4757374332
 H -0.9460706721 -1.1940556828  0.6624659649
9
step 42
 S -0.9317535272 -0.2999218267 -0.3168460698
 C  1.8689856476  0.1304788111  0.2737365317
 C  0.3707947725  0.6944159568  0.4256527960
 H  1.9674980869 -0.7901051659  0.9264986772
 H  2.5781980728  0.8525104052  0.6369535919
 H  2.1584494655 -0.1606768145 -0.7563625997
 H  0.3041737541  1.6350335084 -0.0987927176
 H  0.1669314594  0.8606565658  1.4791601367
 H -0.9489211942 -1.1876536739  0.6624606498
9
step 43
 S -0.9304120585 -0.3009479699 -0.3164077438
 C  1.8699548073  0.1323491237  0.2780552119
 C  0.3721118164  0.6975257944  0.4255211501
 H  1.9697759128 -0.7812593593  0.9263904136
 H  2.5881656490  0.8635200732  0.6405648047
 H  2.1569613381 -0.1590199407 -0.7504257097
 H  0.2999400684  1.6424458495 -0.0945609041
 H  0.1741274671  0.8506397343  1.4827791718
 H -0.9521005280 -1.1820945287  0.6627245477
9
step 44
 S -0.9290397854 -0.3019849403 -0.3159691040
 C  1.8706672427  0.1339939580  0.2825865996
 C  0.3738024211  0.7005181398  0.4252132627
 H  1.9718832734 -0.7693019355  0.9239512785
 H  2.5980291636  0.8749719863  0.6441586196
 H  2.1540307961 -0.1563415782 -0.7426895743
 H  0.2962987306  1.6511633281 -0.0898337162
 H  0.1814715393  0.8409842048  1.4864890967
 H -0.9555934830 -1.1776579709  0.6636011198
9
step 45
 S -0.9276329749 -0.3030225921 -0.3155382827
 C  1.8711830108  0.1355800067  0.2873167061
 C  0.3758597019  0.7033912102  0.4247506659
 H  1.9738596931 -0.7551074078  0.9198754085
 H  2.6068785666  0.8859508377  0.6473254964
 H  2.1498257091 -0.1527483621 -0.7335250484
 H  0.2933363839  1.6608786116 -0.0844398594
 H  0.1888349234  0.8318241935  1.4901330679
 H -0.9593790614 -1.1745439862  0.6653598264
9
step 46
 S -0.9261879077 -0.3040534574 -0.3151203297
 C  1.8715492077  0.1372954973  0.2922193650
 C  0.3782719465  0.7061499680  0.4241597364
 H  1.9757781590 -0.7398662241  0.9150863610
 H  2.6139050752  0.8956393610  0.6497169974
 H  2.1445716199 -0.1483992386 -0.7234745857
 H  0.2911419195  1.6712060205 -0.0782030785
 H  0.1960927321  0.8232804177  1.4935192805
 H -0.9634289019 -1.1728464426  0.6681639331
9
step 47
 S -0.9247008943 -0.3050732540 -0.3147165445
 C  1.8717956204  0.1393348314  0.2972554518
 C  0.3810229382  0.7088030684  0.4234715295
 H  1.9777396497 -0.7249941252  0.9106699248
 H  2.6184755095  0.9033952734  0.6510796032
 H  2.1385367508 -0.1434930930 -0.7132053006
 H  0.2898017131  1.6817220333 -0.0709661063
 H  0.2031227733  0.8154608421  1.4964427173
 H -0.9677056012 -1.1725380404  0.6720503737
9
step 48
 S -0.9231682803 -0.3060809546 -0.3143243023
 C  1.8719337920  0.1418791654  0.3023759323
 C  0.3840922913  0.7113598322  0.4227211734
 H  1.9798589163 -0.7119740689  0.9077570117
 H  2.6201811926  0.9088036522  0.6512742264
 H  2.1320115626 -0.1382515461 -0.7034423756
 H  0.2893939559  1.6920073514 -0.0626128048
 H  0.2098044440  0.8084609726  1.4987092711
 H -0.9721613473 -1.1734696824  0.6769256356
9
step 49
 S -0.9215864444 -0.3070784001 -0.3139374055
 C  1.8719588637  0.1450725651  0.3075284222
 C  0.3874557205  0.7138276104  0.4219468692
 H  1.9822401936 -0.7021320878  0.9073582844
 H  2.6188683501  0.9117111592  0.6502857337
 H  2.1252844820 -0.1328978383 -0.6948856126
 H  0.2899827733  1.7016857025 -0.0530859491
 H  0.2160179940  0.8023635491  1.5001592628
 H -0.9767372963 -1.1753845310  0.6825784647
9
step 50
 S -0.9199517963 -0.3080695313 -0.3135468901
 C  1.8718530957  0.1489966895  0.3126652006
 C  0.3910851969  0.7162097533  0.4211886224
 H  1.9849463029 -0.6963851024  0.9101792798
 H  2.6146559577  0.9122470828  0.6482260073
 H  2.1186169601 -0.1276338369 -0.6881176024
 H  0.2916128173  1.7104559831 -0.0423993417
 H  0.2216443843  0.7972376321  1.5006877994
 H -0.9813639866 -1.1779441144  0.6887067811
9
step 51
 S -0.9182607791 -0.3090593776 -0.3131421348
 C  1.8715897167  0.1536506186  0.3177490878
 C  0.3949489827  0.7185042586  0.4204868667
 H  1.9879705987 -0.6950359712  0.9164716798
 H  2.6079426923  0.9108316370  0.6453318008
 H  2.1122221288 -0.1226183283 -0.6835179397
 H  0.2943049452  1.7181157710 -0.0306439354
 H  0.2265659522  0.7931371413  1.5002600468
 H -0.9859628913 -1.1807618951  0.6949538213
9
step 52
 S -0.9165098702 -0.3100529741 -0.3127120934
 C  1.8711360669  0.1589434447  0.3227539772
 C  0.3990115956  0.7207031183  0.4198811340
 H  1.9912236427 -0.6976958653  0.9259788545
 H  2.5993984206  0.9081659551  0.6419556597
 H  2.1062512850 -0.1179503814 -0.6812012550
 H  0.2980534918  1.7245752157 -0.0179881284
 H  0.2306680797  0.7900989671  1.4989200441
 H -0.9904490318 -1.1834392488  0.7009478126
9
step 53
 S -0.9146955691 -0.3110543555 -0.3122464888
 C  1.8704561024  0.1647038275  0.3276598387
 C  0.4032337812  0.7227923913  0.4194088905
 H  1.9945414172 -0.7033677851  0.9379989468
 H  2.5899291781  0.9051924683  0.6385453464
 H  2.1007908829 -0.1136612337 -0.6809946770
 H  0.3028254903  1.7298606746 -0.0046724538
 H  0.2338419608  0.7881409027  1.4967920590
 H -0.9947344506 -1.1855995892  0.7063402417
9
step 54
 S -0.9128143593 -0.3120657360 -0.3117368514
 C  1.8695137425  0.1707048094  0.3324457229
 C  0.4075725577  0.7247530647  0.4191046340
 H  1.9977117839 -0.7106543378  0.9515369676
 H  2.5806009774  0.9030117642  0.6356059898
 H  2.0958700319 -0.1097166677 -0.6824618005
 H  0.3085619877  1.7341074436  0.0090011313
 H  0.2359883681  0.7872598185  1.4940737987
 H -0.9987322505 -1.1869177432  0.7108392384
9
step 55
 S -0.9108626465 -0.3130869236 -0.3111773349
 C  1.8682790887  0.1766978239  0.3370855778
 C  0.4119813298  0.7265627592  0.4189993260
 H  2.0005084373 -0.7180095641  0.9654866081
 H  2.5725120621  0.9027470813  0.6336416214
 H  2.0914757514 -0.1060295014 -0.6849680421
 H  0.3151813407  1.7375410613  0.0226849182
 H  0.2370221478  0.7874305954  1.4910213000
 H -1.0023608367 -1.1871429989  0.7142360565
9
step 56
 S -0.9088366919 -0.3141149722 -0.3105652865
 C  1.8667383033  0.1824487391  0.3415495504
 C  0.4164100102  0.7281982637  0.4191202094
 H  2.0027215663 -0.7239618927  0.9787890002
 H  2.5666200295  0.9053644713  0.6330803098
 H  2.0875716619 -0.1024794432 -0.6877718487
 H  0.3225840756  1.7404474258  0.0360050935
 H  0.2368771314  0.7886062369  1.4879261696
 H -1.0055479857 -1.1861152357  0.7164237747
9
step 57
 S -0.9067325694 -0.3151440495 -0.3099015741
 C  1.8649051645  0.1877695159  0.3458098049
 C  0.4208050985  0.7296387505  0.4194910089
 H  2.0041797178 -0.7272725646  0.9905436587
 H  2.5635576255  0.9114833552  0.6341981517
 H  2.0841159646 -0.0989361040 -0.6901221801
 H  0.3306586160  1.7431335166  0.0485837545
 H  0.2355112291  0.7907193174  1.4850869648
 H -1.0082344166 -1.1837741408  0.7174080651
9
step 58
 S -0.9045461688 -0.3161654959 -0.3091906784
 C  1.8628297326  0.1925402095  0.3498473356
 C  0.4251097570  0.7308693548  0.4201324265
 H  2.0047629285 -0.7270291222  1.0000727489
 H  2.5634940742  0.9212343987  0.6370654070
 H  2.0810760443 -0.0952809256 -0.6913457289
 H  0.3392869846  1.7458826045  0.0600612449
 H  0.2329115361  0.7936846331  1.4827776855
 H -1.0103766242 -1.1801617348  0.7173101533
9
step 59
 S -0.9022732493 -0.3171680710 -0.3084405487
 C  1.8605994048  0.1967180666  0.3536561272
 C  0.4292640345  0.7318846316  0.4210627634
 H  2.0044101066 -0.7226915817  1.0069526828
 H  2.5660953388  0.9342178769  0.6415348087
 H  2.0784387955 -0.0914249523 -0.6909143893
 H  0.3483495548  1.7489098929  0.0701166426
 H  0.2290991840  0.7974027383  1.4812173121
 H -1.0119488018 -1.1754182774  0.7163619412
9
step 60
 S -0.8999095310 -0.3181384007 -0.3076621965
 C  1.8583306423  0.2003339932  0.3572428883
 C  0.4332054427  0.7326912912  0.4222984440
 H  2.0031237958 -0.7141112741  1.0110282848
 H  2.5705994460  0.9495788778  0.6472761521
 H  2.0762169709 -0.0873210163 -0.6884904383
 H  0.3577280931  1.7523257633  0.0784844237
 H  0.2241334022  0.8017640405  1.4805448020
 H -1.0129436802 -1.1697712607  0.7148928445
9
step 61
 S -0.8974508076 -0.3190616507 -0.3068689946
 C  1.8561538522  0.2034802927  0.3606229460
 C  0.4368700388  0.7333096247  0.4238542162
 H  2.0009740242 -0.7015360415  1.0124196922
 H  2.5759747569  0.9661678701  0.6538426233
 H  2.0744522371 -0.0829702693 -0.6839510774
 H  0.3673066899  1.7561134546  0.0849658068
 H  0.2181139587  0.8066532191  1.4808036424
 H -1.0133720606 -1.1635169811  0.7133076116
9
step 62
 S -0.8948930643 -0.3199224302 -0.3060756576
 C  1.8541963127  0.2062949575  0.3638142878
 C  0.4401940325  0.7337732165  0.4257428630
 H  1.9981010317 -0.6856058880  1.0115247769
 H  2.5811035082  0.9827293945  0.6607456200
 H  2.0732154311 -0.0784236701 -0.6773949943
 H  0.3769706567  1.7601257380  0.0894340161
 H  0.2111810527  0.8119538402  1.4819387980
 H -1.0132608247 -1.1569944881  0.7120546991
9
step 63
 S -0.8922325957 -0.3207058956 -0.3052969286
 C  1.8525675785  0.2089462149  0.3668318908
 C  0.4431157967  0.7341268711  0.4279743698
 H  1.9947148624 -0.6673329466  1.0090120391
 H  2.5849414001  0.9980694019  0.6675192253
 H  2.0726040994 -0.0737790537 -0.6691324882
 H  0.3866039432  1.7641013880  0.0918335776
 H  0.2035119337  0.8175531066  1.4838068033
 H -1.0126493366 -1.1505527720  0.7115859858
9
step 64
 S -0.8894661232 -0.3213989632 -0.3045460648
 C  1.8513497447  0.2116179634  0.3696840268
 C  0.4455780568  0.7344230511  0.4305546239
 H  1.9910883551 -0.6480502732  1.0057915254
 H  2.5866305437  1.0111777973  0.6737661775
 H  2.0727370353 -0.0691740758 -0.6596589688
 H  0.3960859395  1.7676982119  0.0921745628
 H  0.1953140136  0.8233466871  1.4861973704
 H -1.0115844615 -1.1445137655  0.7123106473
9
step 65
 S -0.8865909090 -0.3219914868 -0.3038332934
 C  1.8505929978  0.2144942120  0.3723717837
 C  0.4475300091  0.7347174022  0.4334838367
 H  1.9875394913 -0.6293084005  1.0029463470
 H  2.5855668237  1.0213064672  0.6791862589
 H  2.0737453552 -0.0647750029 -0.6496105865
 H  0.4052885634  1.7705364433  0.0905231909
 H  0.1868148369  0.8292435241  1.4888629301
 H -1.0101148231 -1.1391356297  0.7145483658
9
step 66
 S -0.8836048641 -0.3224772177 -0.3031644706
 C  1.8503157046  0.2177399758  0.3748925506
 C  0.4489291622  0.7350640362  0.4367549384
 H  1.9844004122 -0.6127028431  1.0016095342
 H  2.5814344975  1.0280150270  0.6835923647
 H  2.0757597771 -0.0607612541 -0.6397013188
 H  0.4140743307  1.7722452592  0.0869903212
 H  0.1782498158  0.8351704373  1.4915515293
 H -1.0082852677 -1.1345820843  0.7184888214
9
step 67
 S -0.8805066520 -0.3228543743 -0.3025401784
 C  1.8505076807  0.2214778502  0.3772470879
 C  0.4497427877  0.7355111718  0.4403521894
 H  1.9819749032 -0.5996373763  1.0027867755
 H  2.5742220685  1.0311978589  0.6869199081
 H  2.0788942905 -0.0573059643 -0.6306435341
 H  0.4222958230  1.7725059642  0.0817192109
 H  0.1698489658  0.8410762449  1.4940386104
 H -1.0061326287 -1.1309034217  0.7241646056
9
step 68
 S -0.8772957860 -0.3231257151 -0.3019554349
 C  1.8511349165  0.2257633139  0.3794477851
 C  0.4499489816  0.7360975420  0.4442502018
 H  1.9804932715 -0.5910668968  1.0071563981
 H  2.5642286981  1.0311010273  0.6892333867
 H  2.0832273650 -0.0545536794 -0.6230587497
 H  0.4297967634  1.7710872422  0.0748736078
 H  0.1618239503  0.8469350704  1.4961540876
 H -1.0036836699 -1.1280329754  0.7314428028
9
step 69
 S -0.8739727144 -0.3232981085 -0.3014000720
 C  1.8521440439  0.2305657371  0.3815238379
 C  0.4495374027  0.7368497875  0.4484135153
 H  1.9800792138 -0.5873001659  1.0149092134
 H  2.5520627679  1.0283295334  0.6907308816
 H  2.0887831581 -0.0525975438 -0.6173909061
 H  0.4364148353  1.7678698574  0.0666269315
 H  0.1543565964  0.8527485025  1.4978023289
 H -1.0009555685 -1.1257996401  0.7400369185
9
step 70
 S -0.8705388673 -0.3233816973 -0.3008597001
 C  1.8534656708  0.2357629495  0.3835195421
 C  0.4485097397  0.7377809344  0.4527968422
 H  1.9807414429 -0.5879416162  1.0256939122
 H  2.5386252216  1.0238356714  0.6917432605
 H  2.0955164162 -0.0514596941 -0.6138387051
 H  0.4419862788  1.7628596249  0.0571530343
 H  0.1475898043  0.8585463325  1.4989736547
 H -0.9979586693 -1.1239537142  0.7495368391
9
step 71
 S -0.8669966312 -0.3233888205 -0.3003170776
 C  1.8550174086  0.2411535226  0.3854856743
 C  0.4468798551  0.7388900298  0.4573460650
 H  1.9823921774 -0.5919975219  1.0386932445
 H  2.5250617084  1.0188698003  0.6927203674
 H  2.1033051594 -0.0510793561 -0.6123233806
 H  0.4463520380  1.7561882337  0.0466189370
 H  0.1416215724  0.8643856692  1.4997465797
 H -0.9947007375 -1.1222010357  0.7594514224
9
step 72
 S -0.8633492323 -0.3233328666 -0.2997536589
 C  1.8567090081  0.2464850726  0.3874686149