9
step 0
 O  1.2661383941 -0.2616609612 -0.1289932649
 C -1.2200309413 -0.2396123455 -0.0109544633
 C  0.1032305271  0.5595279751  0.0458924456
 H -2.0663636125  0.4349440647  0.0739317474
 H -1.2713675673 -0.9574549063  0.8029737787
 H  0.1498082846  1.1155194010  0.9908186695
 H  1.2280406873 -0.8957656590  0.6318632461
 H  0.1182467878  1.2928593301 -0.7652797606
 H -1.2977025730 -0.7783568978 -0.9502523954
9
step 1
 O  1.2681005511 -0.2619672839 -0.1282754932
 C -1.2207253892 -0.2345775911 -0.0058688112
 C  0.1059129644  0.5592413128  0.0457681723
 H -2.0543577786  0.4238970333  0.0816897139
 H -1.2801276276 -0.9503637063  0.7981746522
 H  0.1417973942  1.1229989678  0.9870647999
 H  1.2318676356 -0.9017071486  0.6282658610
 H  0.1256899587  1.2872615972 -0.7665395956
 H -1.3081577220 -0.7747831800 -0.9502792963
9
step 2
 O  1.2700627337 -0.2622753838 -0.1275526669
 C -1.2212969847 -0.2296637778 -0.0009247128
 C  0.1085716809  0.5589463659  0.0456683463
 H -2.0440468434  0.4144770096  0.0895789746
 H -1.2886856929 -0.9439017724  0.7941090470
 H  0.1340425893  1.1303790082  0.9833214307
 H  1.2356151070 -0.9075693252  0.6246779979
 H  0.1330350117  1.2818614693 -0.7680319320
 H -1.3184564874 -0.7708875630 -0.9497407119
9
step 3
 O  1.2720274565 -0.2625876665 -0.1268184263
 C -1.2216305837 -0.2249779280  0.0037572548
 C  0.1111882984  0.5586377144  0.0456151843
 H -2.0370241019  0.4082151729  0.0977459045
 H -1.2968608738 -0.9386400899  0.7914332125
 H  0.1267819201  1.1375679956  0.9795874267
 H  1.2392140084 -0.9132820328  0.6211000958
 H  0.1401946424  1.2768228779 -0.7699615397
 H -1.3284614113 -0.7663951160 -0.9481631569
9
step 4
 O  1.2739974540 -0.2629064184 -0.1260669166
 C -1.2216434019 -0.2206028186  0.0080856226
 C  0.1137459056  0.5583142458  0.0456262578
 H -2.0344888669  0.4063059378  0.1063100814
 H -1.3044807547 -0.9350185916  0.7906464374
 H  0.1202422803  1.1444780327  0.9758593815
 H  1.2425989458 -0.9187822448  0.6175375488
 H  0.1470854263  1.2722641409 -0.7724803749
 H -1.3380491330 -0.7611152239 -0.9452242729
9
step 5
 O  1.2759756392 -0.2632335018 -0.1252931727
 C -1.2213097272 -0.2165817577  0.0120103516
 C  0.1162300495  0.5579801160  0.0457120865
 H -2.0369531550  0.4093748168  0.1153293000
 H -1.3113797345 -0.9332754205  0.7920218038
 H  0.1146346954  1.1510292271  0.9721369933
 H  1.2457091659 -0.9240191089  0.6140053328
 H  0.1536283663  1.2682432855 -0.7756677836
 H -1.3471189260 -0.7549626024 -0.9407905497
9
step 6
 O  1.2779649590 -0.2635701165 -0.1244934053
 C -1.2206735888 -0.2129115584  0.0155296140
 C  0.1186294490  0.5576449182  0.0458745773
 H -2.0440895626  0.4173598605  0.1247739280
 H -1.3173973950 -0.9334048827  0.7955691808
 H  0.1101500514  1.1571536289  0.9684281352
 H  1.2484892378 -0.9289573595  0.6105309574
 H  0.1597490173  1.2647517288 -0.7795198460
 H -1.3555995853 -0.7479657667 -0.9349327364
9
step 7
 O  1.2799681613 -0.2639166724 -0.1236651440
 C -1.2198426959 -0.2095470906  0.0186893268
 C  0.1209363268  0.5573229856  0.0461065502
 H -2.0547964389  0.4295601745  0.1345229083
 H -1.3223790490 -0.9351557250  0.8010397823
 H  0.1069551451  1.1627984440  0.9647528215
 H  1.2508895962 -0.9335786925  0.6071551621
 H  0.1653775794  1.2617173429 -0.7839497142
 H -1.3634546446 -0.7402632953 -0.9279195048
9
step 8
 O  1.2819875311 -0.2642728026 -0.1228072122
 C -1.2189662294 -0.2064149489  0.0215754797
 C  0.1231463610  0.5570319123  0.0463924065
 H -2.0674491663  0.4448244788  0.1443836789
 H -1.3261799966 -0.9380705111  0.8079709996
 H  0.1051891003  1.1679283079  0.9611454062
 H  1.2528670070 -0.9378809795  0.6039301195
 H  0.1704493732  1.2590162790 -0.7887988687
 H -1.3706852225 -0.7320882851 -0.9201897681
9
step 9
 O  1.2840246590 -0.2646375225 -0.1219195359
 C -1.2182062500 -0.2034299186  0.0243010922
 C  0.1252583373  0.5567905274  0.0467098082
 H -2.0802245602  0.4617946460  0.1541268214
 H -1.3286734711 -0.9415555014  0.8157599395
 H  0.1049604199  1.1725264013  0.9576545875
 H  1.2543849709 -0.9418754141  0.6009153471
 H  0.1749059243  1.2564914491 -0.7938573149
 H -1.3773290349 -0.7237415371 -0.9123041505
9
step 10
 O  1.2860802789 -0.2650095140 -0.1210028241
 C -1.2177125849 -0.2005087692  0.0269904768
 C  0.1272736150  0.5566166633  0.0470320908
 H -2.0913863433  0.4791221875  0.1635223323
 H -1.3297606752 -0.9449638459  0.8237486583
 H  0.1063450155  1.1765941624  0.9543410788
 H  1.2554140403 -0.9455819363  0.5981719490
 H  0.1786965932  1.2539746304 -0.7988893594
 H -1.3834540513 -0.7155547480 -0.9048775182
9
step 11
 O  1.2881541724 -0.2653874880 -0.1200581831
 C -1.2176061825 -0.1975793298  0.0297632834
 C  0.1291955202  0.5565250728  0.0473310603
 H -2.0994769137  0.4956180008  0.1723685284
 H -1.3293805852 -0.9476753505  0.8313051139
 H  0.1093853932  1.1801494194  0.9512731040
 H  1.2559320302 -0.9490235740  0.5957561009
 H  0.1817804710  1.2513089450 -0.8036610827
 H -1.3891463119 -0.7078466545 -0.8984977634
9
step 12
 O  1.2902451174 -0.2657705651 -0.1190867382
 C -1.2179709406 -0.1945855068  0.0327201913
 C  0.1310287539  0.5565257810  0.0475798258
 H -2.1034168961  0.5103361395  0.1805110403
 H -1.3275175363 -0.9491617079  0.8378894149
 H  0.1140908926  1.1832229576  0.9485201231
 H  1.2559241464 -0.9522205807  0.5937128126
 H  0.1841282022  1.2483689234 -0.8079659741
 H -1.3944933350 -0.7008775453 -0.8936407179
9
step 13
 O  1.2923508510 -0.2661586071 -0.1180893375
 C -1.2188514167 -0.1914897196  0.0359316006
 C  0.1327788790  0.5566230308  0.0477553762
 H -2.1025412643  0.5226119136  0.1878536666
 H -1.3242055265 -0.9490329985  0.8431014377
 H  0.1204386341  1.1858537910  0.9461454026
 H  1.2553830949 -0.9551853374  0.5920709474
 H  0.1857234692  1.2450761956 -0.8116460988
 H -1.3995665672 -0.6948098216 -0.8905953709
9
step 14
 O  1.2944680341 -0.2665524429 -0.1170663869
 C -1.2202534233 -0.1882738747  0.0394303042
 C  0.1344519291  0.5568148620  0.0478406770
 H -2.0966031684  0.5320766972  0.1943642763
 H -1.3195290497 -0.9470662976  0.8467105451
 H  0.1283747418  1.1880836582  0.9441982093
 H  1.2543092298 -0.9579189124  0.5908402535
 H  0.1865639926  1.2414097286 -0.8146071897
 H -1.4044074622 -0.6896828071 -0.8894147835
9
step 15
 O  1.2965922215 -0.2669539483 -0.1160178448
 C -1.2221453137 -0.1849394601  0.0432087000
 C  0.1360541711  0.5570932815  0.0478261284
 H -2.0857671218  0.5386656125  0.2000784924
 H -1.3136207242 -0.9432192687  0.8486700115
 H  0.1378154939  1.1899514412  0.9427065246
 H  1.2527107428 -0.9604099252  0.5900108158
 H  0.1866619881  1.2374101635 -0.8168268526
 H -1.4090212084 -0.6854076473 -0.8899041578
9
step 16
 O  1.2987178568 -0.2673659664 -0.1149433684
 C -1.2244590057 -0.1815070512  0.0472205378
 C  0.1375920410  0.5574449516  0.0477102634
 H -2.0706006985  0.5426256288  0.2051025690
 H -1.3066560257 -0.9376311229  0.8491183192
 H  0.1486482736  1.1914882758  0.9416712305
 H  1.2506038249 -0.9626359677  0.5895549581
 H  0.1860440683  1.2331781664 -0.8183555304
 H -1.4133798563 -0.6817833100 -0.8916489500
9
step 17
 O  1.3008383207 -0.2677920866 -0.1138425815
 C -1.2270910945 -0.1780153385  0.0513866501
 C  0.1390722638  0.5578523249  0.0474996029
 H -2.0520615759  0.5445223216  0.2096151618
 H -1.2988453294 -0.9306114908  0.8483677936
 H  0.1607324572  1.1927140789  0.9410626601
 H  1.2480127113 -0.9645673546  0.5894312986
 H  0.1847505881  1.2288668810 -0.8193101066
 H -1.4174336379 -0.6785294240 -0.8940761267
9
step 18
 O  1.3029460525 -0.2682363263 -0.1127154137
 C -1.2299055512 -0.1745194049  0.0556038505
 C  0.1405021454  0.5582951563  0.0472076244
 H -2.0314653445  0.5452335064  0.2138656864
 H -1.2904235179 -0.9226158557  0.8468792954
 H  0.1739005929  1.1936360510  0.9408202231
 H  1.2449695183 -0.9661725639  0.5895903717
 H  0.1828344600  1.2246687842 -0.8198602706
 H -1.4211270130 -0.6753283514 -0.8965349254
9
step 19
 O  1.3050327581 -0.2687027716 -0.1115624509
 C -1.2327402669 -0.1710872415  0.0597562659
 C  0.1418899891  0.5587523086  0.0468528790
 H -2.0104105050  0.5459078778  0.2181648865
 H -1.2816378088 -0.9142054534  0.8452209816
 H  0.1879603140  1.1942494384  0.9408554695
 H  1.2415137862 -0.9674244590  0.5899809926
 H  0.1803595334  1.2207976565 -0.8202082750
 H -1.4244153064 -0.6718685555 -0.8983820428
9
step 20
 O  1.3070896940 -0.2691952395 -0.1103852383
 C -1.2354196778 -0.1677927360  0.0637286063
 C  0.1432455437  0.5592037218  0.0464563996
 H -1.9906354330  0.5478608695  0.2228618977
 H -1.2727351340 -0.9059908488  0.8440103818
 H  0.2026973567  1.1945405056  0.9410584823
 H  1.2376916825 -0.9683062625  0.5905564210
 H  0.1773987379  1.2174670591 -0.8205635987
 H -1.4272786303 -0.6678833371 -0.8990591853
9
step 21
 O  1.3091079940 -0.2697170147 -0.1091864907
 C -1.2377742477 -0.1647035151  0.0674208490
 C  0.1445803488  0.5596323547  0.0460386859
 H -1.9737967980  0.5523878684  0.2283033914
 H -1.2639509925 -0.8985620283  0.8438425012
 H  0.2178798140  1.1944913401  0.9413069934
 H  1.2335549066 -0.9688163019  0.5912794213
 H  0.1740322951  1.2148675262 -0.8211151670
 H -1.4297313553 -0.6631817257 -0.8981557019
9
step 22
 O  1.3110789847 -0.2702707002 -0.1079701870
 C -1.2396642616 -0.1618641658  0.0707632024
 C  0.1459078326  0.5600258626  0.0456166708
 H -1.9611965610  0.5605074889  0.2347765873
 H -1.2555016933 -0.8924129788  0.8452116604
 H  0.2332634521  1.1940858581  0.9414772058
 H  1.2291594410 -0.9689707662  0.5921254960
 H  0.1703463143  1.2131453256 -0.8220048252
 H -1.4318269254 -0.6576703066 -0.8954530651
9
step 23
 O  1.3129944315 -0.2708582003 -0.1067415396
 C -1.2410012669 -0.1592793460  0.0737290950
 C  0.1472430578  0.5603777800  0.0452011367
 H -1.9535336683  0.5727005458  0.2424487056
 H -1.2475809589 -0.8878733343  0.8484394602
 H  0.2485976989  1.1933162360  0.9414551053
 H  1.2245643497 -0.9688040472  0.5930838603
 H  0.1664319431  1.2123857990 -0.8233062290
 H -1.4336587455 -0.6513654550 -0.8909499752
9
step 24
 O  1.3148466838 -0.2714808365 -0.1055068382
 C -1.2417588449 -0.1569042992  0.0763430775
 C  0.1486021016  0.5606880361  0.0447950035
 H -1.9507784183  0.5887478811  0.2513242475
 H -1.2403602175 -0.8850612629  0.8536232637
 H  0.2636319179  1.1921889589  0.9411470644
 H  1.2198307861 -0.9683666164  0.5941560786
 H  0.1623849618  1.2126037862 -0.8250128633
 H -1.4353579625 -0.6443951275 -0.8848668597
9
step 25
 O  1.3166287250 -0.2721395800 -0.1042731687
 C -1.2419681321 -0.1546484844  0.0786809341
 C  0.1500011698  0.5609627300  0.0443927644
 H -1.9522261283  0.6077455957  0.2612386406
 H -1.2339904682 -0.8838686785  0.8606172059
 H  0.2781217638  1.1907297434  0.9404886971
 H  1.2150212540 -0.9677207342  0.5953526406
 H  0.1583054558  1.2137425739 -0.8270374770
 H -1.4370883082 -0.6369887914 -0.8776274585
9
step 26
 O  1.3183341701 -0.2728353627 -0.1030480211
 C -1.2417009315 -0.1523915240  0.0808612016
 C  0.1514556310  0.5612132020  0.0439811368
 H -1.9567007730  0.6282914011  0.2718907947
 H -1.2286032764 -0.8839824103  0.8690509296
 H  0.2918355536  1.1889867249  0.9394511202
 H  1.2101990443 -0.9669345777  0.5966880632
 H  0.1542971319  1.2156814364 -0.8292231623
 H -1.4390372577 -0.6294540888 -0.8698145871
9
step 27
 O  1.3199572482 -0.2735694170 -0.1018388245
 C -1.2410485016 -0.1500047711  0.0830296361
 C  0.1529791643  0.5614545493  0.0435407886
 H -1.9628166681  0.6487570236  0.2828998306
 H -1.2243094366 -0.8849357730  0.8783820729
 H  0.3045605187  1.1870314789  0.9380439834
 H  1.2054277302 -0.9660756101  0.5981753507
 H  0.1504659970  1.2182504706 -0.8313641699
 H -1.4414023258 -0.6221399997 -0.8620987617
9
step 28
 O  1.3214927891 -0.2743435793 -0.1006524737
 C -1.2401036644 -0.1473710468  0.0853396953
 C  0.1545831619  0.5617038232  0.0430488479
 H -1.9692091502  0.6675472807  0.2938653741
 H -1.2211953947 -0.8861779062  0.8879705961
 H  0.3161085781  1.1849576563  0.9363148829
 H  1.2007706390 -0.9652041659  0.5998207594
 H  0.1469183679  1.2212503442 -0.8332329634
 H -1.4443719584 -0.6153888433 -0.8551433452
9
step 29
 O  1.3229362069 -0.2751604925 -0.0994949285
 C -1.2389496871 -0.1443984642  0.0879324979
 C  0.1562764306  0.5619781841  0.0424818376
 H -1.9746912737  0.6832875325  0.3044168702
 H -1.2193186526 -0.8871462084  0.8971595849
 H  0.3263211110  1.1828772319  0.9343451051
 H  1.1962902519 -0.9643682381  0.6016197781
 H  0.1437583822  1.2244740529 -0.8346093563
 H -1.4481022392 -0.6094831720 -0.8494978483
9
step 30
 O  1.3242834697 -0.2760236595 -0.0983709489
 C -1.2376553897 -0.1410278880  0.0909194056
 C  0.1580651531  0.5622932670  0.0418186867
 H -1.9783379902  0.6949311008  0.3142471286
 H -1.2187036084 -0.8873302311  0.9053490327
 H  0.3350722720  1.1809145868  0.9322420185
 H  1.1920474942 -0.9636002688  0.6035550331
 H  0.1410852705  1.2277278875 -0.8353078991
 H -1.4526929344 -0.6045972489 -0.8454991967
9
step 31
 O  1.3255310488 -0.2769373207 -0.0972840070
 C -1.2362739817 -0.1372353861  0.0943696571
 C  0.1599530247  0.5626619333  0.0410435338
 H -1.9795207045  0.7018071211  0.3231321977
 H -1.2193388142 -0.8863210074  0.9120543393
 H  0.3422706434  1.1791988445  0.9301287697
 H  1.1881008578 -0.9629163920  0.6055964973
 H  0.1389906401  1.2308494133 -0.8352006377
 H -1.4581681111 -0.6007642307 -0.8432043215
9
step 32
 O  1.3266758593 -0.2779061631 -0.0962363729
 C -1.2348430323 -0.1330312922  0.0983043853
 C  0.1619414651  0.5630934968  0.0401481058
 H -1.9779170102  0.7036355957  0.3309422861
 H -1.2211759877 -0.8838449477  0.9169468543
 H  0.3478593440  1.1778550628  0.9281322074
 H  1.1845052982 -0.9623181450  0.6077039978
 H  0.1375559607  1.2337210351 -0.8342334785
 H -1.4644665160 -0.5978675651 -0.8423722636
9
step 33
 O  1.3277152082 -0.2789348981 -0.0952293437
 C -1.2333838192 -0.1284572316  0.1026969693
 C  0.1640298275  0.5635934378  0.0391335100
 H -1.9735132012  0.7005301304  0.3376481397
 H -1.2241306725 -0.8797843262  0.9198775586
 H  0.3518149696  1.1769950326  0.9263701587
 H  1.1813108714 -0.9617962485  0.6098316435
 H  0.1368503890  1.2362783704 -0.8324352586
 H -1.4714446690 -0.5956587062 -0.8425006091
9
step 34
 O  1.3286467706 -0.2800277711 -0.0942635598
 C -1.2318994454 -0.1235821185  0.1074784426
 C  0.1662155601  0.5641635840  0.0380112981
 H -1.9666075689  0.6929981134  0.3433254817
 H -1.2280843142 -0.8741867944  0.9208862484
 H  0.3541458683  1.1767085656  0.9249393101
 H  1.1785611492 -0.9613357364  0.6119335033
 H  0.1369290433  1.2385130399 -0.8299191046
 H -1.4788921198 -0.5937959310 -0.8429055617
9
step 35
 O  1.3294686057 -0.2811880777 -0.0933393444
 C -1.2303722125 -0.1184976703  0.1125461306
 C  0.1684943129  0.5648027228  0.0368036664
 H -1.9578127437  0.6819365215  0.3481575584
 H -1.2328876004 -0.8672650258  0.9201978925
 H  0.3548902368  1.1770562149  0.9239049911
 H  1.1762915396 -0.9609215386  0.6139696844
 H  0.1378318475  1.2404696539 -0.8268758702
 H -1.4865552674 -0.5918943588 -0.8428249827
9
step 36
 O  1.3301792122 -0.2824177646 -0.0924570053
 C -1.2287616968 -0.1133132275  0.1177740218
 C  0.1708600244  0.5655076075  0.0355426795
 H -1.9480453933  0.6686100616  0.3524327574
 H -1.2383650164 -0.8593855628  0.9182061963
 H  0.3541143944  1.1780643394  0.9232940711
 H  1.1745277294 -0.9605435861  0.6159119066
 H  0.1395830749  1.2422368954 -0.8235596433
 H -1.4941648583 -0.5895769384 -0.8415229153
9
step 37
 O  1.3307776140 -0.2837171793 -0.0916170490
 C -1.2270057530 -0.1081487506  0.1230242786
 C  0.1733050429  0.5662742985  0.0342684610
 H -1.9384820228  0.6545884032  0.3565310465
 H -1.2443205430 -0.8510442282  0.9154429424
 H  0.3519114069  1.1797232301  0.9230919086
 H  1.1732845206 -0.9602006114  0.6177477214
 H  0.1421917016  1.2439329147 -0.8202657741
 H -1.5014628541 -0.5865191301 -0.8383803316
9
step 38
 O  1.3312634586 -0.2850850044 -0.0908202749
 C -1.2250270041 -0.1031242895  0.1281601402
 C  0.1758203414  0.5670997399  0.0330264192
 H -1.9304542361  0.6416155901  0.3608909673
 H -1.2505441726 -0.8428250415  0.9125313910
 H  0.3484000550  1.1819886741  0.9232438230
 H  1.1725652936 -0.9599020305  0.6194826873
 H  0.1456525753  1.2456858756 -0.8173027508
 H -1.5082259366 -0.5824838961 -0.8329650764
9
step 39
 O  1.3316371101 -0.2865183833 -0.0900677393
 C -1.2227465949 -0.0983448649  0.1330606309
 C  0.1783958604  0.5679834034  0.0318637379
 H -1.9252646156  0.6313966509  0.3659510308
 H -1.2568185033 -0.8353412540  0.9101236386
 H  0.3437240252  1.1847868674  0.9236609524
 H  1.1723622317 -0.9596675725  0.6211400905
 H  0.1499482169  1.2476114483 -0.8149604601
 H -1.5142845249 -0.5773464938 -0.8250801673
9
step 40
 O  1.3318997169 -0.2880132049 -0.0893605973
 C -1.2201042475 -0.0938822906  0.1376365217
 C  0.1810209608  0.5689287567  0.0308255317
 H -1.9239355435  0.6253223557  0.3720689785
 H -1.2629243221 -0.8291612605  0.9088255810
 H  0.3380511412  1.1880221199  0.9242297691
 H  1.1726572997 -0.9595246560  0.6227581456
 H  0.1550508337  1.2497900572 -0.8134785691
 H -1.5195372058 -0.5711096531 -0.8147921198
9
step 41
 O  1.3320532354 -0.2895644983 -0.0886998463
 C -1.2170792860 -0.0897592979  0.1418451165
 C  0.1836849218  0.5699442826  0.0299511743
 H -1.9269540206  0.6242044735  0.3794385359
 H -1.2686441632 -0.8247281981  0.9091183725
 H  0.3315724124  1.1915864409  0.9248240726
 H  1.1734238212 -0.9595038517  0.6243849894
 H  0.1609239596  1.2522474178 -0.8130194695
 H -1.5239606760 -0.5639091914 -0.8024400427
9
step 42
 O  1.3321003964 -0.2911668797 -0.0880860016
 C -1.2137041506 -0.0859433574  0.1456997811
 C  0.1863773919  0.5710437932  0.0292713065
 H -1.9341121250  0.6281232434  0.3880354348
 H -1.2737635801 -0.8222880088  0.9112901849
 H  0.3245006207  1.1953699568  0.9253180732
 H  1.1746283910 -0.9596330671  0.6260721405
 H  0.1675231983  1.2549419214 -0.8136500208
 H -1.5276145451 -0.5560086746 -0.7886231553
9
step 43
 O  1.3320446059 -0.2928150118 -0.0875187477
 C -1.2100638611 -0.0823545840  0.1492703411
 C  0.1890887393  0.5722458831  0.0288059242
 H -1.9445199624  0.6364548775  0.3976179799
 H -1.2780710989 -0.8218432909  0.9153938196
 H  0.3170680886  1.1992711940  0.9255991803
 H  1.1762328539 -0.9599312977  0.6278674071
 H  0.1747958977  1.2577615713 -0.8153351309
 H -1.5306388027 -0.5477803687 -0.7741610709
9
step 44
 O  1.3318897819 -0.2945040358 -0.0869966209
 C -1.2062818833 -0.0788852051  0.1526729387
 C  0.1918102965  0.5735725141  0.0285637576
 H -1.9567861478  0.6480607871  0.4077817499
 H -1.2813588634 -0.8231462966  0.9212417805
 H  0.3095233305  1.2032064184  0.9255792426
 H  1.1781961337 -0.9604029423  0.6298083890
 H  0.1826800550  1.2605315217 -0.8179442407
 H -1.5332401856 -0.5396695977 -0.7600203379
9
step 45
 O  1.3316401530 -0.2962299273 -0.0865167891
 C -1.2024994689 -0.0754228893  0.1560511807
 C  0.1945345248  0.5750468870  0.0285429364
 H -1.9692835344  0.6615496610  0.4180430415
 H -1.2834260117 -0.8257339810  0.9284408751
 H  0.3021265153  1.2071173216  0.9252031802
 H  1.1804757061 -0.9610337156  0.6319176529
 H  0.1911030582  1.2630312250 -0.8212695068
 H -1.5356637135 -0.5321417296 -0.7472049480
9
step 46
 O  1.3313000503 -0.2979897178 -0.0860749813
 C -1.1988567211 -0.0718705353  0.1595526132
 C  0.1972551199  0.5766908985  0.0287327378
 H -1.9804029760  0.6755185359  0.4279201536
 H -1.2840856582 -0.8289956662  0.9364572696
 H  0.2951439446  1.2109763790  0.9244541876
 H  1.1830285478 -0.9617889886  0.6342004139
 H  0.1999808787  1.2650183755 -0.8250525312
 H -1.5381489267 -0.5256158120 -0.7366188955
9
step 47
 O  1.3308737212 -0.2997815337 -0.0856656031
 C -1.1954799060 -0.0681589677  0.1633052839
 C  0.1999670524  0.5785225481  0.0291160804
 H -1.9887377681  0.6887229512  0.4369936713
 H -1.2831746831 -0.8322560448  0.9446958089
 H  0.2888419011  1.2147892875  0.9233549922
 H  1.1858114969 -0.9626149762  0.6366451631
 H  0.2092181037  1.2662558373 -0.8290154054
 H -1.5408769280 -0.5203955235 -0.7289230836
9
step 48
 O  1.3303651837 -0.3016044352 -0.0852820363
 C -1.1924748783 -0.0642524816  0.1673987978
 C  0.2026665184  0.5805536337  0.0296723855
 H -1.9931904796  0.7001730794  0.4449423151
 H -1.2805644237 -0.8348561417  0.9525772459
 H  0.2834802120  1.2185940662  0.9219649960
 H  1.1887810780 -0.9634426803  0.6392271693
 H  0.2187089131  1.2665377685 -0.8328918361
 H -1.5439214255 -0.5166135201 -0.7244199684
9
step 49
 O  1.3297781281 -0.3034580787 -0.0849170848
 C -1.1899238248 -0.0601487274  0.1718730186
 C  0.2053507775  0.5827879856  0.0303804589
 H -1.9930223878  0.7091772818  0.4515601587
 H -1.2761702925 -0.8362206294  0.9596022730
 H  0.2793057447  1.2224566881  0.9203734749
 H  1.1918929620 -0.9641940233  0.6419142768
 H  0.2283389050  1.2657119750 -0.8364549470
 H -1.5472196607 -0.5142051007 -0.7229984675
9
step 50
 O  1.3291158673 -0.3053422643 -0.0845635044
 C -1.1878823514 -0.0558747689  0.1767154687
 C  0.2080178874  0.5852203882  0.0312211246
 H -1.9878718948  0.7153584703  0.4567633581
 H -1.2699589734 -0.8359071047  0.9653980073
 H  0.2765459285  1.2264634558  0.9186893377
 H  1.1951013125 -0.9647892618  0.6446740574
 H  0.2379876024  1.2636966161 -0.8395394948
 H -1.5505739730 -0.5129192387 -0.7241552067
9
step 51
 O  1.3283813244 -0.3072564572 -0.0842145424
 C -1.1863753359 -0.0514811879  0.1818661413
 C  0.2106663882  0.5878362634  0.0321794160
 H -1.9777619696  0.7186622611  0.4605929261
 H -1.2619525473 -0.8336380777  0.9697475811
 H  0.2754023516  1.2307107115  0.9170282680
 H  1.1983583124 -0.9651545969  0.6474811859
 H  0.2475314570  1.2604902942 -0.8420571878
 H -1.5536836928 -0.5123627452 -0.7270833425
9
step 52
 O  1.3275770466 -0.3091993764 -0.0838644132
 C -1.1853917212 -0.0470359668  0.1872269069
 C  0.2132950318  0.5906121493  0.0332461742
 H -1.9631059607  0.7193663707  0.4632169674
 H -1.2522292832 -0.8293183502  0.9726055461
 H  0.2760445367  1.2352928312  0.9154984156
 H  1.2016141302 -0.9652289004  0.6503239038
 H  0.2568471582  1.2561750807 -0.8440043206
 H -1.5561966630 -0.5120636019 -0.7308009174
9
step 53
 O  1.3267052309 -0.3111687325 -0.0835086473
 C -1.1848797442 -0.0426192740  0.1926726586
 C  0.2159026686  0.5935169714  0.0344189069
 H -1.9447095424  0.7180904084  0.4649321869
 H -1.2409209257 -0.8230398334  0.9741013447
 H  0.2786040996  1.2402897577  0.9141861371
 H  1.2048174966 -0.9649686262  0.6532085620
 H  0.2658150179  1.2509122627 -0.8454611060
 H -1.5577656442 -0.5115372422 -0.7342863170
9
step 54
 O  1.3257677543 -0.3131611706 -0.0831442632
 C -1.1847448249 -0.0383191255  0.1980625308
 C  0.2184883923  0.5965140617  0.0357017563
 H -1.9237549399  0.7157940269  0.4661605703
 H -1.2282063697 -0.8150739611  0.9745313079
 H  0.2831696097  1.2457555348  0.9131435203
 H  1.2079169379 -0.9643502330  0.6561614813
 H  0.2743221476  1.2449307641 -0.8465821670
 H -1.5580976539 -0.5103440420 -0.7365972123
9
step 55
 O  1.3247661099 -0.3151725212 -0.0827698841
 C -1.1848525546 -0.0342265439  0.2032510711
 C  0.2210520636  0.5995638580  0.0371045872
 H -1.9017434852  0.7137396271  0.4674330474
 H -1.2143024585 -0.8058500613  0.9743378741
 H  0.2897819555  1.2517093118  0.9123795099
 H  1.2108635925 -0.9633686917  0.6592288639
 H  0.2822648546  1.2385088842 -0.8475777220
 H -1.5569902354 -0.5081332409 -0.7369629465
9
step 56
 O  1.3237016067 -0.3171980206 -0.0823852200
 C -1.1850395120 -0.0304273878  0.2081006759
 C  0.2235949073  0.6026268491  0.0386406238
 H -1.8803671595  0.7133865631  0.4693498304
 H -1.1994507204 -0.7959171152  0.9740729458
 H  0.2984330064  1.2581300741  0.9118558126
 H  1.2136115399 -0.9620363112  0.6624702859
 H  0.2895509366  1.2319493007 -0.8486871071
 H -1.5543542615 -0.5046737277 -0.7348502946
9
step 57
 O  1.3225753440 -0.3192329024 -0.0819908117
 C -1.1851322415 -0.0269888783  0.2124961574
 C  0.2261204308  0.6056667623  0.0403235769
 H -1.8612943824  0.7161908224  0.4725083309
 H -1.1839051138 -0.7858877867  0.9743445816
 H  0.3090645259  1.2649557870  0.9114887202
 H  1.2161208779 -0.9603763239  0.6659527410
 H  0.2961001718  1.2255513474 -0.8501452072
 H -1.5502252801 -0.4998748258 -0.7300083819
9
step 58
 O  1.3213882832 -0.3212729687 -0.0815875316
 C -1.1849722911 -0.0239407913  0.2163615934
 C  0.2286352030  0.6086533735  0.0421640614
 H -1.8458912880  0.7233171721  0.4774020996
 H -1.1679215720 -0.7763669665  0.9757476023
 H  0.3215695830  1.2720870759  0.9111564937
 H  1.2183597500 -0.9584159937  0.6697419048
 H  0.3018441219  1.2195827521 -0.8521465971
 H -1.5447666439 -0.4937994619 -0.7224969958
9
step 59
 O  1.3201413422 -0.3233151129 -0.0811760625
 C -1.1844401789 -0.0212566425  0.2196769009
 C  0.2311493055  0.6115646024  0.0441659720
 H -1.8349559368  0.7353341083  0.4843139452
 H -1.1517526040 -0.7678722634  0.9787842055
 H  0.3357957803  1.2793948747  0.9107114270
 H  1.2203059116 -0.9561794685  0.6738928504
 H  0.3067253673  1.2142551280 -0.8548124449
 H -1.5382660508 -0.4866697845 -0.7126988073
9
step 60
 O  1.3188354932 -0.3253577153 -0.0807564401
 C -1.1834690380 -0.0188442132  0.2224893018
 C  0.2336762926  0.6143876105  0.0463234557
 H -1.8285731270  0.7520132805  0.4932429667
 H -1.1356481538 -0.7607594744  0.9837863144
 H  0.3515499857  1.2867310517  0.9099950277
 H  1.2219476962 -0.9536816321  0.6784416207
 H  0.3106967899  1.2097069626 -0.8581660193
 H -1.5311247615 -0.4788618954 -0.7013095946
9
step 61
 O  1.3174718329 -0.3274008694 -0.0803277359
 C -1.1820425965 -0.0165529138  0.2249145632
 C  0.2362326503  0.6171187916  0.0486190776
 H -1.8261574147  0.7723340775  0.5038988669
 H -1.1198611317 -0.7551693778  0.9908558104
 H  0.3686043784  1.2939408413  0.9088544637
 H  1.2232843303 -0.9509240342  0.6833990644
 H  0.3137215376  1.2059966451 -0.8621217324
 H -1.5238358358 -0.4708833522 -0.6892942200
9
step 62
 O  1.3160516044 -0.3294464261 -0.0798879352
 C -1.1801806326 -0.0141972880  0.2271253689
 C  0.2388368836  0.6197627181  0.0510235639
 H -1.8266567932  0.7946937962  0.5157655653
 H -1.1046534521 -0.7510101487  0.9998386817
 H  0.3867038463  1.3008758678  0.9071584148
 H  1.2243255872 -0.9478936099  0.6887480847
 H  0.3157740624  1.2031062402 -0.8664902754
 H -1.5169459902 -0.4633262865 -0.6777935239
9
step 63
 O  1.3145761811 -0.3314978605 -0.0794340370
 C -1.1779211009 -0.0115880706  0.2293279750
 C  0.2415084327  0.6223302529  0.0534971686
 H -1.8288175361  0.8172239720  0.5282041047
 H -1.0902977729 -0.7479809907  1.0103421683
 H  0.4055747509  1.3074065274  0.9048106663
 H  1.2250907881 -0.9445644018  0.6944449117
 H  0.3168421973  1.2009547529 -0.8709991710
 H -1.5109974732 -0.4567925033 -0.6679737379
9
step 64
 O  1.3130470379 -0.3335599692 -0.0789623694
 C -1.1753071804 -0.0085607816  0.2317315957
 C  0.2442665840  0.6248361391  0.0559923710
 H -1.8314137174  0.8380922083  0.5405564095
 H -1.0770720162 -0.7456302808  1.0217918089
 H  0.4249347052  1.3134325094  0.9017601564
 H  1.2256072293 -0.9409019710  0.7004242784
 H  0.3169298336  1.1994180564 -0.8753250173
 H -1.5064532907 -0.4517961932 -0.6608293857
9
step 65
 O  1.3114657440 -0.3356384256 -0.0784690778
 C -1.1723818882 -0.0049957681  0.2345171170
 C  0.2471294718  0.6272964305  0.0584573945
 H -1.8333971984  0.8557184825  0.5522252496
 H -1.0652470013 -0.7434320538  1.0335138087
 H  0.4445025428  1.3188904015  0.8980067268
 H  1.2259082147 -0.9368697237  0.7066076457
 H  0.3160595418  1.1983518706 -0.8791318663
 H -1.5036197033 -0.4486631817 -0.6569792001
9
step 66
 O  1.3098339911 -0.3377392404 -0.0779507123
 C -1.1691878004 -0.0008280696  0.2378123779
 C  0.2501131927  0.6297260999  0.0608399930
 H -1.8339727024  0.8688963588  0.5627244885
 H -1.0550701255 -0.7408627905  1.0448233081
 H  0.4640074694  1.3237576848  0.8936023841
 H  1.2260309528 -0.9324360757  0.7129130980
 H  0.3142745203  1.1976143156 -0.8821099926
 H -1.5025881581 -0.4474558189 -0.6565163305
9
step 67
 O  1.3081536554 -0.3398681994 -0.0774048230
 C -1.1657676099  0.0039518397  0.2416794951
 C  0.2532310242  0.6321370871  0.0630910650
 H -1.8326242463  0.8768445194  0.5717054840
 H -1.0467487683 -0.7374656324  1.0551023007
 H  0.4831965931  1.3280528729  0.8886483197
 H  1.2260145882 -0.9275812764  0.7192653393
 H  0.3116394534  1.1970853911 -0.8840104179
 H -1.5032170146 -0.4479500072 -0.6589678695
9
step 68
 O  1.3064268763 -0.3420303602 -0.0768304708
 C -1.1621624399  0.0093039849  0.2461154898
 C  0.2564927458  0.6345369546  0.0651678233
 H -1.8291193271  0.8792208851  0.5789690544
 H -1.0404361975 -0.7328968355  1.0638585658
 H  0.5018404495  1.3318319491  0.8832881694
 H  1.2258985789 -0.9223028133  0.7256043163
 H  0.3082400938  1.1966817986 -0.8846721423
 H -1.5051596010 -0.4496727277 -0.6633793454
9
step 69
 O  1.3046561298 -0.3442296813 -0.0762285723
 C -1.1584072156  0.0151483305  0.2510628590
 C  0.2599040848  0.6369282387  0.0670363819
 H -1.8235083998  0.8761232562  0.5844709228
 H -1.0362213036 -0.7269552454  1.0707642518
 H  0.5197365100  1.3351815375  0.8776981030
 H  1.2257215348 -0.9166185668  0.7318912891
 H  0.3041815638  1.1963664012 -0.8840403760
 H -1.5079273372 -0.4519851401 -0.6684904974
9
step 70
 O  1.3028442824 -0.3464688357 -0.0756020229
 C -1.1545242568  0.0213747661  0.2564244724
 C  0.2634663374  0.6393085198  0.0686736741
 H -1.8161268777  0.8680872644  0.5883248612
 H -1.0341224000 -0.7195981164  1.0756768497
 H  0.5367108617  1.3382094472  0.8720744441
 H  1.2255205480 -0.9105672387  0.7381115421
 H  0.2995854933  1.1961521189 -0.8821748407
 H -1.5109664986 -0.4541831275 -0.6729420373
9
step 71
 O  1.3009946151 -0.3487492265 -0.0749555680
 C -1.1505169954  0.0278520033  0.2620781219
 C  0.2671762289  0.6416711869  0.0700685995
 H -1.8075971724  0.8560788844  0.5908032002
 H -1.0340849252 -0.7109462601  1.0786460278
 H  0.5526183188  1.3410334225  0.8666197059
 H  1.2253309803 -0.9042059730  0.7442733671
 H  0.2945862019  1.1961002304 -0.8792475302
 H -1.5137291024 -0.4555898589 -0.6754605611
9
step 72
 O  1.2991108215 -0.3510711907 -0.0742954292
 C -1.1463657890  0.0344356830  0.2678888344