8
step 0
 C -0.7682046172  0.0229496385  0.0213316701
 C  0.7681795839 -0.0229994963 -0.0213314163
 H  1.1814065967 -0.0040606968  0.9828590590
 H  1.1633014527  0.8291582115 -0.5665097895
 H  1.1122336593 -0.9285618996 -0.5123455147
 H -1.1633362282 -0.8293548072  0.5662734898
 H -1.1122589298  0.9283806265  0.5125899609
 H -1.1814215175  0.0042884234 -0.9828674592
8
step 1
 C -0.7681254266  0.0230866684  0.0220871529
 C  0.7653607423 -0.0176521076 -0.0164920512
 H  1.1885176152 -0.0039390636  0.9833554002
 H  1.1728590593  0.8188338699 -0.5590662490
 H  1.1015548634 -0.9212105010 -0.5171388846
 H -1.1732849566 -0.8216249444  0.5624987247
 H -1.1106716625  0.9230316448  0.5089676901
 H -1.1763102345 -0.0007255666 -0.9842117830
8
step 2
 C -0.7680385549  0.0232321014  0.0228031285
 C  0.7625360212 -0.0123706501 -0.0116005905
 H  1.1955325865 -0.0038950905  0.9839296752
 H  1.1825420591  0.8094258936 -0.5520507362
 H  1.0908885308 -0.9138784255 -0.5217750726
 H -1.1832474226 -0.8143152873  0.5589993702
 H -1.1094209453  0.9183458364  0.5055740233
 H -1.1711430437 -0.0056537844 -0.9855452568
8
step 3
 C -0.7679400059  0.0233936661  0.0234392935
 C  0.7597237290 -0.0072548945 -0.0066459283
 H  1.2022968354 -0.0040086288  0.9846489824
 H  1.1923887550  0.8018428330 -0.5459023040
 H  1.0803338642 -0.9066441370 -0.5260592048
 H -1.1931519670 -0.8078618265  0.5560527428
 H -1.1088390490  0.9149809739  0.5026372215
 H -1.1659068675 -0.0103736428 -0.9868506546
8
step 4
 C -0.7678331290  0.0235822315  0.0239671667
 C  0.7569482797 -0.0023864444 -0.0016256272
 H  1.2086559887 -0.0043564558  0.9855741619
 H  1.2023738080  0.7967909880 -0.5409397363
 H  1.0699963692 -0.8995908960 -0.5298066166
 H -1.2029015007 -0.8026062610  0.5538774220
 H -1.1092063724  0.9134595755  0.5003150220
 H -1.1605950906 -0.0147695688 -0.9881208814
8
step 5
 C -0.7677321939  0.0238144753  0.0243754563
 C  0.7542435008  0.0021792665  0.0034498173
 H  1.2144604026 -0.0050076332  0.9867615696
 H  1.2123621072  0.7946867952 -0.5373026344
 H  1.0599898794 -0.8928083006 -0.5328530599
 H -1.2123589712 -0.7987578543  0.5526092300
 H -1.1107206953  0.9140932800  0.4986604169
 H -1.1552102684 -0.0187375924 -0.9893637812
8
step 6
 C -0.7676643807  0.0241146227  0.0246728258
 C  0.7516541358  0.0064166307  0.0085551389
 H  1.2195695030 -0.0060190283  0.9882642519
 H  1.2220827422  0.7956171879 -0.5349227998
 H  1.0504373217 -0.8863911474 -0.5350630239
 H -1.2213395170 -0.7963732353  0.5522883390
 H -1.1134769142  0.9169363527  0.4976033981
 H -1.1497654707 -0.0221893788 -0.9906035722
8
step 7
 C -0.7676695002  0.0245145784  0.0248873334
 C  0.7492345988  0.0103284417  0.0136516024
 H  1.2238557100 -0.0074313468  0.9901321456
 H  1.2311340665  0.7993569301 -0.5335343019
 H  1.0414699331 -0.8804357118 -0.5363353934
 H -1.2296123722 -0.7953577060  0.5528596864
 H -1.1174617667  0.9217800810  0.4969542506
 H -1.1442841337 -0.0250553633 -0.9918783159
8
step 8
 C -0.7677973168  0.0250522735  0.0250626222
 C  0.7470449749  0.0139401877  0.0186911168
 H  1.2272077175 -0.0092660056  0.9924113422
 H  1.2390201900  0.8054343836 -0.5327182782
 H  1.0332248447 -0.8750340682 -0.5366060777
 H -1.2369132759 -0.7954869715  0.5541860868
 H -1.1225643100  0.9281891757  0.4964282020
 H -1.1387985353 -0.0272867730 -0.9932335984
8
step 9
 C -0.7681029517  0.0257686335  0.0252517171
 C  0.7451451945  0.0172919315  0.0236219779
 H  1.2295329814 -0.0115230893  0.9951427384
 H  1.2452086573  0.8132246625 -0.5319685890
 H  1.0258411876 -0.8702673273 -0.5358476554
 H -1.2429655098 -0.7964440899  0.5560709458
 H -1.1285989599  0.9355702389  0.4956854357
 H -1.1333472265 -0.0288564731 -0.9947133849
8
step 10
 C -0.7686412455  0.0267039245  0.0255097292
 C  0.7435887501  0.0204298000  0.0283948195
 H  1.2307593419 -0.0141804791  0.9983604523
 H  1.2491942840  0.8220470636 -0.5307616677
 H  1.0194551056 -0.8661986513 -0.5340664387
 H -1.2475057847 -0.7978642359  0.5582861194
 H -1.1353354573  0.9432559403  0.4943773384
 H -1.1279719358 -0.0297587392 -0.9963496149
8
step 11
 C -0.7694610323  0.0278942348  0.0258867595
 C  0.7424171497  0.0233985256  0.0329676913
 H  1.2308357731 -0.0171940680  1.0020902633
 H  1.2505562259  0.8312501775 -0.5286178053
 H  1.0141942149 -0.8628667438 -0.5312976580
 H -1.2503106399 -0.7993799817  0.5606004520
 H -1.1425299400  0.9505886682  0.4921902886
 H -1.1227145467 -0.0300081880 -0.9981524224
8
step 12
 C -0.7706000722  0.0293685765  0.0264219610
 C  0.7416557904  0.0262356808  0.0373097673
 H  1.2297323326 -0.0204988403  1.0063481784
 H  1.2490011785  0.8402773979 -0.5251477353
 H  1.0101721070 -0.8602803323 -0.5275996581
 H -1.2512196901 -0.8006615534  0.5628055054
 H -1.1499528256  0.9569922844  0.4888812153
 H -1.1176147279 -0.0296381775 -1.0001028191
8
step 13
 C -0.7720810883  0.0311467686  0.0271392753
 C  0.7413114219  0.0289676405  0.0414036774
 H  1.2274394609 -0.0240105571  1.0111391333
 H  1.2443911846  0.8487127894 -0.5200839326
 H  1.0074834359 -0.8584140648 -0.5230480472
 H -1.2501533524 -0.8014488266  0.5647363328
 H -1.1574112779  0.9620267499  0.4843025882
 H -1.1127086462 -0.0286989865 -1.0021493089
8
step 14
 C -0.7739090884  0.0332380330  0.0280449952
 C  0.7413710733  0.0316070340  0.0452467027
 H  1.2239668298 -0.0276278476  1.0164558685
 H  1.2367576611  0.8563106353 -0.5132988116
 H  1.0062000136 -0.8572062296 -0.5177306395
 H -1.2471239314 -0.8015737309  0.5662862958
 H -1.1647656917  0.9654250245  0.4784169872
 H -1.1080289539 -0.0272560109 -1.0042092927
8
step 15
 C -0.7760700137  0.0356401538  0.0291270994
 C  0.7418022398  0.0341514717  0.0488510796
 H  1.2193419541 -0.0312346271  1.0222781370
 H  1.2263037686  0.8630118863 -0.5048121646
 H  1.0063681900 -0.8565587228 -0.5117437852
 H -1.2422397381 -0.8009727832  0.5674155838
 H -1.1719404191  0.9671137105  0.4713024203
 H -1.1036059683 -0.0253880822 -1.0061753922
8
step 16
 C -0.7785307298  0.0383391045  0.0303562313
 C  0.7425542155  0.0365835172  0.0522435094
 H  1.2136087497 -0.0347029004  1.0285725428
 H  1.2133960675  0.8689484326 -0.4947887009
 H  1.0080076627 -0.8563396570 -0.5051903363
 H -1.2357022383 -0.7996896996  0.5681532938
 H -1.1789289247  0.9672186787  0.4631494007
 H -1.0994697285 -0.0231858724 -1.0079260981
8
step 17
 C -0.7812404126  0.0413091678  0.0316882136
 C  0.7435605867  0.0388721253  0.0554637700
 H  1.2068261602 -0.0378961008  1.0352933944
 H  1.1985447755  0.8744329416 -0.4835245416
 H  1.0111117456 -0.8563888710 -0.4981791262
 H -1.2277962977 -0.7978678203  0.5685928611
 H -1.1857929620  0.9660553628  0.4542500448
 H -1.0956524666 -0.0207502328 -1.0093395358
8
step 18
 C -0.7841334069  0.0445137119  0.0330680032
 C  0.7447429710  0.0409759493  0.0585621815
 H  1.1990669000 -0.0406731343  1.0423849088
 H  1.1823710541  0.8799292877 -0.4714201226
 H  1.0156490152 -0.8565263225 -0.4908255033
 H -1.2188737603 -0.7957319344  0.5688806279
 H -1.1926546327  0.9641017318  0.4449787761
 H -1.0921910031 -0.0181902516 -1.0103086896
8
step 19
 C -0.7871335840  0.0479068617  0.0344349407
 C  0.7460160019  0.0428489234  0.0615956877
 H  1.1904162865 -0.0428932256  1.0497848804
 H  1.1655606097  0.8859980051 -0.4589372571
 H  1.0215661413 -0.8565629340 -0.4832522289
 H -1.2093311091 -0.7935595300  0.5691976797
 H -1.1996798287  0.9619514227  0.4357641961
 H -1.0891286309 -0.0156208320 -1.0107561787
8
step 20
 C -0.7901600537  0.0514362561  0.0357289780
 C  0.7472932897  0.0444481838  0.0646225755
 H  1.1809710685 -0.0444214957  1.0574295404
 H  1.1488060138  0.8932145400 -0.4465410750
 H  1.0287915761 -0.8563129615 -0.4755899472
 H -1.1995828828 -0.7916428414  0.5697359568
 H -1.2070520935  0.9602462728  0.4270526936
 H -1.0865161728 -0.0131596624 -1.0106466198
8
step 21
 C -0.7931337954  0.0550468555  0.0368972918
 C  0.7484936778  0.0457436542  0.0676963514
 H  1.1708381111 -0.0451349924  1.0652588667
 H  1.1327449068  0.9020663485 -0.4346331796
 H  1.0372396398 -0.8556064573 -0.4679764743
 H -1.1900336041 -0.7902452315  0.5706709796
 H -1.2149378140  0.9595921436  0.4192664420
 H -1.0844120106 -0.0109235498 -1.0099947389
8
step 22
 C -0.7959844310  0.0586853714  0.0379003805
 C  0.7495467626  0.0467276361  0.0708598735
 H  1.1601327734 -0.0449287085  1.0732212251
 H  1.1179054967  0.9128463329 -0.4234887616
 H  1.0468144293 -0.8543000655 -0.4605543068
 H -1.1810517611 -0.7895578335  0.5721349255
 H -1.2234467497  0.9604687131  0.4127610094
 H -1.0828809710 -0.0090241899 -1.0088677137
8
step 23
 C -0.7986561101  0.0623044963  0.0387165652
 C  0.7503966192  0.0474220082  0.0741411493
 H  1.1489768237 -0.0437210311  1.0812761234
 H  1.1046713751  0.9255690826 -0.4132137395
 H  1.0574129444 -0.8522843705 -0.4534660014
 H -1.1729493587 -0.7896639237  0.5741946452
 H -1.2325952242  0.9631501661  0.4077896998
 H -1.0819919895 -0.0075635300 -1.0073807324
8
step 24
 C -0.8011114763  0.0658659332  0.0393439265
 C  0.7510031135  0.0478807635  0.0775519358
 H  1.1374957898 -0.0414581171  1.0893941697
 H  1.0932728396  0.9399356688 -0.4037346136
 H  1.0689269101 -0.8494864471 -0.4468474073
 H -1.1659695439 -0.7905181731  0.5768389070
 H -1.2422810042  0.9676554953  0.4044816026
 H -1.0818145109 -0.0066289498 -1.0056854891
8
step 25
 C -0.8033330323  0.0693414795  0.0397991742
 C  0.7513409359  0.0481868227  0.0810894278
 H  1.1258157617 -0.0381168612  1.0975540130
 H  1.0838033804  0.9553595540 -0.3948237582
 H  1.0812429850 -0.8458671181 -0.4408191299
 H -1.1602830688 -0.7919453403  0.5799775401
 H -1.2522772951  0.9737416887  0.4028375669
 H -1.0824136739 -0.0062885481 -1.0039522982
8
step 26
 C -0.8053218282  0.0727120334  0.0401136410
 C  0.7513971442  0.0484438455  0.0847403110
 H  1.1140598319 -0.0337063492  1.1057368793
 H  1.0762524299  0.9710463535 -0.3861513388
 H  1.0942413456 -0.8414135397 -0.4354770303
 H -1.1559925305 -0.7936587980  0.5834526288
 H -1.2622483903  0.9809416135  0.4027438183
 H -1.0838445041 -0.0065868734 -1.0023476492
8
step 27
 C -0.8070940271  0.0759650665  0.0403272538
 C  0.7511682153  0.0487651597  0.0884858525
 H  1.1023445201 -0.0282679050  1.1139200188
 H  1.0705428625  0.9861046927 -0.3773482893
 H  1.1077929755 -0.8361288170 -0.4308829311
 H -1.1531420726 -0.7952950304  0.5870593799
 H -1.2717834256  0.9886361269  0.4039987059
 H -1.0861455991 -0.0075414548 -1.0010101583
8
step 28
 C -0.8086762665  0.0790914753  0.0404817141
 C  0.7506573661  0.0492623101  0.0923067341
 H  1.0907766151 -0.0218739738  1.1220707059
 H  1.0665642702  0.9996615259 -0.3680654380
 H  1.1217562931 -0.8300210839 -0.4270568910
 H -1.1517298390 -0.7964574227  0.5905726120
 H -1.2804403526  0.9961426407  0.4063459071
 H -1.0893330447 -0.0091404472 -1.0000286622
8
step 29
 C -0.8101007446  0.0820826715  0.0406141161
 C  0.7498724640  0.0500351579  0.0961868122
 H  1.0794508227 -0.0146261371  1.1301423285
 H  1.0641978677  1.0109619189 -0.3580195997
 H  1.1359739814 -0.8230946629 -0.4239723439
 H -1.1517208334 -0.7967620190  0.5937744230
 H -1.2877913263  1.0028024224  0.4095077829
 H -1.0933954653 -0.0113416221 -0.9994263207
8
step 30
 C -0.8114007008  0.0849284273  0.0407519256
 C  0.7488244865  0.0511645077  0.1001155513
 H  1.0684484519 -0.0066525210  1.1380736410
 H  1.0633329823  1.0194439498 -0.3470239467
 H  1.1502709710 -0.8153454835 -0.4215550602
 H -1.1530585898 -0.7958791544  0.5964793061
 H -1.2934627369  1.0080543468  0.4132145920
 H -1.0982910805 -0.0140728302 -0.9991538383
8
step 31
 C -0.8126066223  0.0876156151  0.0409098100
 C  0.7475263108  0.0527074074  0.1040892652
 H  1.0578371560  0.0018952304  1.1457916060
 H  1.0638771560  1.0247880356 -0.3350042773
 H  1.1644544528 -0.8067620166 -0.4196863680
 H -1.1556748265 -0.7935669979  0.5985542583
 H -1.2971663329  1.0114896988  0.4172276148
 H -1.1039474083 -0.0172339704 -0.9990933873
8
step 32
 C -0.8137432651  0.0901277196  0.0410883993
 C  0.7459916247  0.0546948233  0.1081114436
 H  1.0476715507  0.0108453579  1.1532175860
 H  1.0657621286  1.0269440443 -0.3220042577
 H  1.1783165412 -0.7973318193 -0.4182104802
 H -1.1594968192 -0.7896950755  0.5999326605
 H -1.2987205996  1.0128878186  0.4213559738
 H -1.1102638656 -0.0207004139 -0.9990729056
8
step 33
 C -0.8148274758  0.0924449203  0.0412747795
 C  0.7442338512  0.0571313195  0.1121924016
 H  1.0379944127  0.0200098121  1.1602760780
 H  1.0689471396  1.0261393359 -0.3081820741
 H  1.1916398173 -0.7870526694 -0.4169452524
 H -1.1644525100 -0.7842571628  0.6006215504
 H -1.2980629595  1.0122347027  0.4254677164
 H -1.1171170771 -0.0243277561 -0.9988886770
8
step 34
 C -0.8158668304  0.0945445783  0.0414444057
 C  0.7422651415  0.0599965546  0.1163483665
 H  1.0288381293  0.0291886090  1.1669047988
 H  1.0734196746  1.0228680786 -0.2937993312
 H  1.2042055243 -0.7759464380 -0.4156953183
 H -1.1704734080 -0.7773734525  0.6007022677
 H -1.2952534617  1.0097264625  0.4294956544
 H -1.1243683242 -0.0279576791 -0.9983329168
8
step 35
 C -0.8168592031  0.0964020777  0.0415641368
 C  0.7400956451  0.0632486814  0.1205999755
 H  1.0202261135  0.0381748241  1.1730647131
 H  1.0791923516  1.0178587733 -0.2792014669
 H  1.2158037510 -0.7640734099 -0.4142663451
 H -1.1774952257 -0.7692819112  0.6003244850
 H -1.2904699375  1.0057578851  0.4334378276
 H -1.1318723169 -0.0314246249 -0.9972226580
8
step 36
 C -0.8177934634  0.0979920949  0.0415961873
 C  0.7377333979  0.0668299097  0.1249700926
 H  1.0121739741  0.0467602753  1.1787485554
 H  1.0862934412  1.0120149968 -0.2647882413
 H  1.2262445777 -0.7515447019 -0.4124790958
 H -1.1854560368 -0.7603187238  0.5996936223
 H -1.2839938031  1.0008944530  0.4373516512
 H -1.1394863610 -0.0345629034 -0.9954264616
8
step 37
 C -0.8186515107  0.0992904643  0.0415028627
 C  0.7351852032  0.0706743772  0.1294809005
 H  1.0046903124  0.0547418290  1.1839864897
 H  1.0947481489  1.0063260391 -0.2509737184
 H  1.2353689231 -0.7385306627 -0.4101820320
 H -1.1942916771 -0.7508881660  0.5990518492
 H -1.2761854935  0.9958253080  0.4413402712
 H -1.1470789855 -0.0372138067 -0.9928860787
8
step 38
 C -0.8194117187  0.1002768034  0.0412519252
 C  0.7324587517  0.0747179278  0.1341504369
 H  0.9977770776  0.0619281426  1.1888477724
 H  1.1045491664  1.0017508993 -0.2381379437
 H  1.2430577311 -0.7252635441 -0.4072612958
 H -1.2039282804 -0.7414234461  0.5986535168
 H -1.2674495293  0.9912959009  0.4455299336
 H -1.1545371470 -0.0392322711 -0.9896308899
8
step 39
 C -0.8200535633  0.1009378907  0.0408222533
 C  0.7295658615  0.0789084723  0.1389890707
 H  0.9914294513  0.0681465428  1.1934376439
 H  1.1156187847  0.9990903298 -0.2265767372
 H  1.2492382030 -0.7120332550 -0.4036470751
 H -1.2142723569 -0.7323419493  0.5987369271
 H -1.2581916948  0.9880231765  0.4500387556
 H -1.1617712007 -0.0404926301 -0.9857835428
8
step 40
 C -0.8205627977  0.1012714535  0.0402091363
 C  0.7265261949  0.0832147053  0.1439967164
 H  0.9856352571  0.0732496719  1.1978891980
 H  1.1277703742  0.9988727399 -0.2164597879
 H  1.2538860191 -0.6991756464 -0.3993155916
 H -1.2251996747 -0.7240004046  0.5994956038
 H -1.2487742302  0.9866026374  0.4549402487
 H -1.1687169331 -0.0408930211 -0.9815556633
8
step 41
 C -0.8209361797  0.1012896154  0.0394282052
 C  0.7233703642  0.0876307135  0.1491616241
 H  0.9803739347  0.0771215010  1.2023506569
 H  1.1406814554  1.0012832804 -0.2078078155
 H  1.2570229127 -0.6870535662 -0.3942863044
 H -1.2365451751 -0.7166568813  0.6010532102
 H -1.2394778085  0.9874232570  0.4602284385
 H -1.1753340951 -0.0403580864 -0.9772329689
8
step 42
 C -0.8211846567  0.1010210145  0.0385168605
 C  0.7201413083  0.0921749014  0.1544612258
 H  0.9756151925  0.0796823040  1.2069692676
 H  1.1538901677  1.0061559284 -0.2004952833
 H  1.2587095454 -0.6760319011 -0.3886144184
 H -1.2480967903 -0.7104463157  0.6034464044
 H -1.2304793398  0.9906091338  0.4657936045
 H -1.1816011395 -0.0388397443 -0.9731498163
8
step 43
 C -0.8213342234  0.1005107760  0.0375323459
 C  0.7168933364  0.0968834254  0.1598648760
 H  0.9713175670  0.0808922278  1.2118737656
 H  1.1668203040  1.0130286302 -0.1942774191
 H  1.2590343518 -0.6664488757 -0.3823794307
 H -1.2595958669 -0.7053740514  0.6066189028
 H -1.2218511460  0.9960027872  0.4714165792
 H -1.1875063019 -0.0363160633 -0.9696544554
8
step 44
 C -0.8214242856  0.0998181163  0.0365463526
 C  0.7136890240  0.1018000304  0.1653377414
 H  0.9674272441  0.0807532092  1.2171578399
 H  1.1788303737  1.0212421420 -0.1888332000
 H  1.2580997908 -0.6585867678 -0.3756711625
 H -1.2707457226 -0.7013281452  0.6104279515
 H -1.2135807929  1.0031943648  0.4767847790
 H -1.1930358305 -0.0327886281 -0.9670680930
8
step 45
 C -0.8215040129  0.0990121085  0.0356369748
 C  0.7105947555  0.1069649438  0.1708448749
 H  0.9638775854  0.0793091939  1.2228670792
 H  1.1892749624  1.0300543703 -0.1838131103
 H  1.2560081250 -0.6526456190 -0.3685753620
 H -1.2812279986 -0.6981072157  0.6146619294
 H -1.2056048774  1.0115883991  0.4815266762
 H -1.1981610071 -0.0282791912 -0.9656429405
8
step 46
 C -0.8216275265  0.0981666309  0.0348795617
 C  0.7076758280  0.1124051081  0.1763546988
 H  0.9605898066  0.0766448374  1.2289914521
 H  1.1975653959  1.0387458538 -0.1788823639
 H  1.2528492204 -0.6487232835 -0.3611612901
 H -1.2907246347 -0.6954578249  0.6190657664
 H -1.1978472632  1.0204911725  0.4852565099
 H -1.2028263606 -0.0228266614 -0.9655259366
8
step 47
 C -0.8218487607  0.0973555498  0.0343382088
 C  0.7049917707  0.1181270408  0.1818415142
 H  0.9574751260  0.0728830161  1.2354645490
 H  1.2032204673  1.0467028471 -0.1737546073
 H  1.2486927117 -0.6468043151 -0.3534735342
 H -1.2989422087 -0.6931145801  0.6233698938
 H -1.1902533623  1.0292004322  0.4876197712
 H -1.2069417965 -0.0164854257 -0.9667349051
8
step 48
 C -0.8222165887  0.0966488278  0.0340592914
 C  0.7025921626  0.1241126304  0.1872870186
 H  0.9544384811  0.0681814779  1.2421697970
 H  1.2059033463  1.0534750385 -0.1682151884
 H  1.2435861342 -0.6467589417 -0.3455295759
 H -1.3056353064 -0.6908371566  0.6273186346
 H -1.1828155447  1.0370838596  0.4883321097
 H -1.2103809070 -0.0093255530 -0.9691520747
8
step 49
 C -0.8227705372  0.0961097710  0.0340677693
 C  0.7005130033  0.1303175815  0.1926810155
 H  0.9513836293  0.0627288238  1.2489528843
 H  1.2054448382  1.0588111742 -0.1621354145
 H  1.2375594284 -0.6483520487 -0.3373235287
 H -1.3106262920 -0.6884404165  0.6306949177
 H -1.1755883758  1.0436395268  0.4872078787
 H -1.2129864916 -0.0014347386 -0.9725365204
8
step 50
 C -0.8235372620  0.0957932576  0.0343663139
 C  0.6987736698  0.1366720436  0.1980215319
 H  0.9482191949  0.0567398263  1.2556388798
 H  1.2018547385  1.0626773500 -0.1554797314
 H  1.2306349073 -0.6512609441 -0.3288352734
 H -1.3138198115 -0.6858157628  0.6333393666
 H -1.1686947286  1.0485371532  0.4841776200
 H -1.2145826657  0.0070788064 -0.9765533059
8
step 51
 C -0.8245279389  0.0957446406  0.0349368338
 C  0.6973746259  0.1430830781  0.2033144792
 H  0.9448650472  0.0504499458  1.2620521102
 H  1.1953224745  1.0652608608 -0.1483069848
 H  1.2228407325 -0.6550998964 -0.3200432807
 H -1.3152111473 -0.6829432101  0.6351627247
 H -1.1623246246  1.0516417893  0.4792954496
 H -1.2149914870  0.0160836572 -0.9808141854
8
step 52
 C -0.8257367640  0.0959990566  0.0357438013
 C  0.6962962301  0.1494388840  0.2085728589
 H  0.9412583283  0.0441088674  1.2680367509
 H  1.1862065133  1.0669589856 -0.1407655420
 H  1.2142254282 -0.6594490675 -0.3109389368
 H -1.3148879660 -0.6798942244  0.6361510659
 H -1.1567284055  1.0530217549  0.4727375553
 H -1.2140512445  0.0254237582 -0.9849234516
8
step 53
 C -0.8271407878  0.0965810445  0.0367388447
 C  0.6954991056  0.1556149718  0.2138153927
 H  0.9373584888  0.0379729691  1.2734762065
 H  1.1750103387  1.0683485406 -0.1330806894
 H  1.2048710268 -0.6638854201 -0.3015402003
 H -1.3130251542 -0.6768254232  0.6363633800
 H -1.1522051327  1.0529412355  0.4647924284
 H -1.2116335855  0.0349190234 -0.9885228594
8
step 54
 C -0.8287012757  0.0975045814  0.0378662368
 C  0.6949264976  0.1614825912  0.2190644019
 H  0.9331508225  0.0322968180  1.2783095736
 H  1.1623424180  1.0701301648 -0.1255320478
 H  1.1949029429 -0.6680133141 -0.2919027764
 H -1.3098725722 -0.6739631315  0.6359212167
 H -1.1490864438  1.0518361223  0.4558427113
 H -1.2076572688  0.0443682396 -0.9913308841
8
step 55
 C -0.8303666787  0.0987737999  0.0390690347
 C  0.6945087713  0.1669195161  0.2243428252
 H  0.9286481708  0.0273240416  1.2825436672
 H  1.1488596434  1.0730431242 -0.1184195429
 H  1.1844953834 -0.6714926398 -0.2821275028
 H -1.3057359439 -0.6715790065  0.6349904360
 H -1.1477157675  1.0502706895  0.4463382834
 H -1.2020971863  0.0535541607 -0.9931731036
8
step 56
 C -0.8320771124  0.1003846708  0.0402955957
 C  0.6941696854  0.1718226339  0.2296705218
 H  0.9238906691  0.0232781744  1.2862592088
 H  1.1351987101  1.0777536363 -0.1120193336
 H  1.1738717809 -0.6740623701 -0.2723631215
 H -1.3009519175 -0.6699577723  0.6337559920
 H -1.1484229777  1.0488737044  0.4367608694
 H -1.1949880755  0.0622504195 -0.9940016717
8
step 57
 C -0.8337700042  0.1023277632  0.0415059847
 C  0.6938334444  0.1761207297  0.2350604033
 H  0.9189435773  0.0203542661  1.2896098327
 H  1.1219065034  1.0847318364 -0.1065357734
 H  1.1633002221 -0.6755573473 -0.2628039502
 H -1.2958595008 -0.6693596094  0.6323920998
 H -1.1514953355  1.0482563452  0.4275821938
 H -1.1864229114  0.0702297696 -0.9939024825
8
step 58
 C -0.8353863186  0.1045918096  0.0426774626
 C  0.6934310897  0.1797848370  0.2405153375
 H  0.9138933579  0.0187120950  1.2928127389
 H  1.1093852738  1.0941447617 -0.1020600468
 H  1.1530840840 -0.6759160854 -0.2536821676
 H -1.2907712734 -0.6699816066  0.6310317712
 H -1.1571468843  1.0489206317  0.4192201517
 H -1.1765463007  0.0772731402 -0.9930888552
8
step 59
 C -0.8368765696  0.1071673381  0.0438079782
 C  0.6929048999  0.1828332525  0.2460268582
 H  0.9088422322  0.0184716979  1.2961303111
 H  1.0978669705  1.1057967592 -0.0985473712
 H  1.1435481650 -0.6751775869 -0.2452545870
 H -1.2859484759 -0.6719241833  0.6297409136
 H -1.1654900068  1.0511739134  0.4119996344
 H -1.1655434285  0.0831790056 -0.9918807650
8
step 60
 C -0.8382057734  0.1100493306  0.0449166047
 C  0.6922102046  0.1853293313  0.2515763154
 H  0.9039015154  0.0197115992  1.2998430754
 H  1.0874223412  1.1191382876 -0.0958203684
 H  1.1350207165 -0.6734659355 -0.2377840739
 H -1.2815838005 -0.6751686824  0.6285022323
 H -1.1765139669  1.0550685987  0.4061252038
 H -1.1536253798  0.0877725771 -0.9906693342
8
step 61
 C -0.8393566148  0.1132379747  0.0460403021
 C  0.6913150123  0.1873722191  0.2571383008
 H  0.8991841354  0.0224696447  1.3042160066
 H  1.0779984635  1.1333421853 -0.0935977419
 H  1.1278121243 -0.6709629264 -0.2315163608
 H -1.2777943197 -0.6795708328  0.6272126359
 H -1.1900751190  1.0603831917  0.4016708335
 H -1.1410121248  0.0909143225 -0.9898679595
8
step 62
 C -0.8403304126  0.1167371529  0.0472272192
 C  0.6901985004  0.1890827282  0.2626854205
 H  0.8947969223  0.0267458377  1.3094621362
 H  1.0694701717  1.1474250529 -0.0915394053
 H  1.1221916555 -0.6678712386 -0.2266539636
 H -1.2746248566 -0.6848716855  0.6256950009
 H -1.2059016121  1.0666504907  0.3985878458
 H -1.1279151020  0.0925073657 -0.9898542420
8
step 63
 C -0.8411458696  0.1205510753  0.0485276777
 C  0.6888493974  0.1905875946  0.2681931475
 H  0.8908334239  0.0325061962  1.3157090259
 H  1.0616903083  1.1603819829 -0.0892959720
 H  1.1183645156 -0.6643732432 -0.2233300455
 H -1.2720599713 -0.6907239514  0.6237219451
 H -1.2236123289  1.0732256865  0.3967277047
 H -1.1145219423  0.0925034468 -0.9909102700
8
step 64
 C -0.8418359448  0.1246800196  0.0499846420
 C  0.6872647784  0.1920051265  0.2736436818
 H  0.8873680667  0.0396865371  1.3229742192
 H  1.0545291527  1.1713076182 -0.0865526152
 H  1.1164521203 -0.6605926547 -0.2215860090
 H -1.2700413441 -0.6967287507  0.6210468763
 H -1.2427467516  1.0793773684  0.3958734552
 H -1.1009860274  0.0909073269 -0.9931714743
8
step 65
 C -0.8424434073  0.1291162365  0.0516255924
 C  0.6854492248  0.1934342257  0.2790282611
 H  0.8844523379  0.0481953301  1.3311547699
 H  1.0479001440  1.1794888838 -0.0830621255
 H  1.1164786049 -0.6565668420 -0.2213568295
 H -1.2684870163 -0.7024765688  0.6174367412
 H -1.2628007397  1.0843820412  0.3957732251
 H -1.0874228980  0.0877796270 -0.9965946276
8
step 66
 C -0.8430156942  0.1338408044  0.0534572656
 C  0.6834139850  0.1949475824  0.2843478950
 H  0.8821133403  0.0579152766  1.3400334468
 H  1.0417736459  1.1844665160 -0.0786664073
 H  1.1183659620 -0.6522360206 -0.2224673355
 H -1.2673095371 -0.7075867497  0.6127016021
 H -1.2832632699  1.0876069883  0.3961707881
 H -1.0739140241  0.0832379908 -1.0009526206
8
step 67
 C -0.8435996569  0.1388218007  0.0554639097
 C  0.6811757708  0.1965889185  0.2896128524
 H  0.8803546646  0.0687038678  1.3493009740
 H  1.0361821492  1.1860692118 -0.0733080735
 H  1.1219388836 -0.6474519418 -0.2246408483
 H -1.2664310977 -0.7117414884  0.6067177649
 H -1.3036505128  1.0885734169  0.3968304756
 H -1.0605166022  0.0774561943 -1.0058579730
8
step 68
 C -0.8442366900  0.1440138236  0.0576088479
 C  0.6787550414  0.1983736318  0.2948413402
 H  0.8791591856  0.0803936336  1.3585906959
 H  1.0312197837  1.1844254720 -0.0670341601
 H  1.1269387748 -0.6420042424 -0.2275193061
 H -1.2657947322 -0.7147120861  0.5994429184
 H -1.3235352530  1.0869980612  0.3975556692
 H -1.0472766139  0.0706606174 -1.0108106429
8
step 69
 C -0.8449586333  0.1493587126  0.0598385473
 C  0.6761738963  0.2002920772  0.3000577226
 H  0.8784931937  0.0927929483  1.3675202408
 H  1.0270374700  1.1799557979 -0.0599930061
 H  1.1330449834 -0.6356589295 -0.2306919837
 H -1.2653713670 -0.7163765680  0.5909230663
 H -1.3425708232  1.0828149566  0.3982012191
 H -1.0342419257  0.0631235753 -1.0152610263
8
step 70
 C -0.8457847427  0.1547872579  0.0620881747
 C  0.6734539329  0.2023149102  0.3052904404
 H  0.8783112434  0.1056881261  1.3757343626
 H  1.0238333171  1.1733440741 -0.0524238682
 H  1.1399004539 -0.6282016966 -0.2337287688
 H -1.2651628455 -0.7167283952  0.5812917765
 H -1.3605090872  1.0761799288  0.3986804394
 H -1.0214727792  0.0551533976 -1.0186774995
8
step 71
 C -0.8467199607  0.1602217102  0.0642877477
 C  0.6706145550  0.2044002403  0.3105695995
 H  0.8785611654  0.1188472250  1.3829439050
 H  1.0218365128  1.1654838748 -0.0446376280
 H  1.1471388624 -0.6194790748 -0.2362138748
 H -1.2652011426 -0.7158760886  0.5707625470
 H -1.3772116213  1.0674594589  0.3989670790
 H -1.0090481693  0.0470816682 -1.0206092700
8
step 72
 C -0.8477546866  0.1655789525  0.0663682799
 C  0.6676722226  0.2065025359  0.3159241150
 H  0.8791887856  0.1320256315  1.3889571339
 H  1.0212824876  1.1573952124 -0.0369867704
 H  1.1544106599 -0.6094321040 -0.2377765653
 H -1.2655439626 -0.7140334496  0.5596151466
 H -1.3926524284  1.0572041568  0.3990921776
 H -0.9970678072  0.0392484883 -1.0207382903
8
step 73
 C -0.8488662211  0.1707742390  0.0682676096
 C  0.6646409869  0.2085830370  0.3213783828
 H  0.8801419537  0.1449732216  1.3937009830
 H  1.0223782023  1.1501118387 -0.0298243845
 H  1.1614060296 -0.5981192789 -0.2381164838
 H -1.2662669309 -0.7115001126  0.5481768575
 H -1.4069097837  1.0461061853  0.3991353152
 H -0.9856502105  0.0319868679 -1.0189170242
8
step 74
 C -0.8500219910  0.1757253991  0.0699357573
 C  0.6615343262  0.2106207487  0.3269487328
 H  0.8813735005  0.1574427093  1.3972307194
 H  1.0252595200  1.1445491715 -0.0234555419
 H  1.1678732832 -0.5857272342 -0.2370220786
 H -1.2674527416 -0.7086326963  0.5367997787
 H -1.4201448077  1.0349404642  0.3992097826
 H -0.9749278772  0.0256074256 -1.0151908980
8
step 75
 C -0.8511844696  0.1803573153  0.0713396255
 C  0.6583678447  0.2126221239  0.3326403059
 H  0.8828427248  0.1691986867  1.3997271810
 H  1.0299473622  1.1413754253 -0.0180891308
 H  1.1736315374 -0.5725687042 -0.2343811866
 H -1.2691779765 -0.7058080037  0.5258357630
 H -1.4325658011  1.0244918854  0.3994419115
 H -0.9650405528  0.0203845709 -1.0098050199
8
step 76
 C -0.8523173723  0.1846062991  0.0724666656
 C  0.6551619895  0.2146269083  0.3384452655
 H  0.8845150051  0.1800267706  1.4014812653
 H  1.0363136384  1.1409166611 -0.0138015852
 H  1.1785766352 -0.5590678879 -0.2301831017
 H -1.2714988337 -0.7033814306  0.5156110503
 H -1.4443806167  1.0154749091  0.3999463027
 H -0.9561274681  0.0165453485 -1.0031944372
8
step 77
 C -0.8533922708  0.1884237714  0.0733268736
 C  0.6519438461  0.2167079963  0.3443431386
 H  0.8863592000  0.1897421596  1.4028661063
 H  1.0440685562  1.1431225351 -0.0105229945
 H  1.1826793541 -0.5457338283 -0.2245115940
 H -1.2744375787 -0.7016455456  0.5064030431
 H -1.4557438829  1.0084565479  0.4008006564
 H -0.9483192533  0.0142621609 -0.9959564483
8
step 78
 C -0.8543944058  0.1917785319  0.0739523150
 C  0.6487474440  0.2189646864  0.3503035090
 H  0.8883427140  0.1981968192  1.4042986023
 H  1.0527759150  1.1476020367 -0.0080499270
 H  1.1859751960 -0.5331231508 -0.2175286675
 H -1.2779719257 -0.7007950034  0.4984217364
 H -1.4667099366  1.0037965391  0.4020254481
 H -0.9417301012  0.0136505258 -0.9888032103
8
step 79
 C -0.8553264163  0.1946570444  0.0743935118
 C  0.6456126678  0.2215107268  0.3562904973
 H  0.8904245042  0.2052845487  1.4061936655
 H  1.0618941653  1.1537158345 -0.0060807526
 H  1.1885457680 -0.5217946516 -0.2094496492
 H -1.2820294969 -0.7009038091  0.4917979125
 H -1.4772033665  1.0016170555  0.4035737208
 H -0.9364506835  0.0147726367 -0.9824941118
8
step 80
 C -0.8562090900  0.1970616132  0.0747125653
 C  0.6425833892  0.2244599119  0.3622679000
 H  0.8925468721  0.2109434857  1.4089164139
 H  1.0708332216  1.1606966494 -0.0042630378
 H  1.1904930998 -0.5122596672 -0.2005116246
 H -1.2864888425 -0.7019191113  0.4865793395
 H -1.4870154877  1.0018079578  0.4053341517
 H -0.9325422669  0.0176465107 -0.9777509322
8
step 81