9
step 0
 O  1.2661383941 -0.2616609612 -0.1289932649
 C -1.2200309413 -0.2396123455 -0.0109544633
 C  0.1032305271  0.5595279751  0.0458924456
 H -2.0663636125  0.4349440647  0.0739317474
 H -1.2713675673 -0.9574549063  0.8029737787
 H  0.1498082846  1.1155194010  0.9908186695
 H  1.2280406873 -0.8957656590  0.6318632461
 H  0.1182467878  1.2928593301 -0.7652797606
 H -1.2977025730 -0.7783568978 -0.9502523954
9
step 1
 O  1.2681000574 -0.2619672068 -0.1282756738
 C -1.2207252144 -0.2345788577 -0.0058700907
 C  0.1059122896  0.5592413849  0.0457682036
 H -2.0543607991  0.4238998125  0.0816877622
 H -1.2801254237 -0.9503654903  0.7981758596
 H  0.1417994096  1.1229970861  0.9870657443
 H  1.2318666728 -0.9017056539  0.6282667660
 H  0.1256880861  1.2872630055 -0.7665392787
 H -1.3081550916 -0.7747840790 -0.9502792895
9
step 2
 O  1.2700617465 -0.2622752291 -0.1275530295
 C -1.2212966679 -0.2296662796 -0.0009272357
 C  0.1085703370  0.5589465120  0.0456684026
 H -2.0440524364  0.4144821414  0.0895750346
 H -1.2886813352 -0.9439051780  0.7941112750
 H  0.1340465558  1.1303752709  0.9833233180
 H  1.2356132003 -0.9075663569  0.6246798066
 H  0.1330312918  1.2818642365 -0.7680312400
 H -1.3184512669 -0.7708894411 -0.9497408390
9
step 3
 O  1.2720259753 -0.2625874330 -0.1268189739
 C -1.2216301915 -0.2249816038  0.0037535558
 C  0.1111862961  0.5586379374  0.0456152535
 H -2.0370313618  0.4082218040  0.0977398925
 H -1.2968544555 -0.9386448011  0.7914361049
 H  0.1267877131  1.1375624535  0.9795902594
 H  1.2392111936 -0.9132776315  0.6211028086
 H  0.1401891220  1.2768269140 -0.7699603628
 H -1.3284536775 -0.7663981209 -0.9481636745
9
step 4
 O  1.2739954774 -0.2629061039 -0.1260676539
 C -1.2216430262 -0.2206075843  0.0080808391
 C  0.1137432601  0.5583145484  0.0456263226
 H -2.0344965319  0.4063128774  0.1063018708
 H -1.3044724093 -0.9350241717  0.7906495100
 H  0.1202497178  1.1444707614  0.9758631682
 H  1.2425952749 -0.9187764692  0.6175411671
 H  0.1470781729  1.2722693270 -0.7724785650
 H -1.3380389968 -0.7611195507 -0.9452255162
9
step 5
 O  1.2759731649 -0.2632331035 -0.1252941059
 C -1.2213094667 -0.2165875186  0.0120045883
 C  0.1162267801  0.5579804993  0.0457121267
 H -2.0369598330  0.4093807200  0.1153187413
 H -1.3113696343 -0.9332813687  0.7920245078
 H  0.1146435413  1.1510203250  0.9721417485
 H  1.2457047057 -0.9240120330  0.6140098568
 H  0.1536194672  1.2682494904 -0.7756651741
 H -1.3471065271 -0.7549684696 -0.9407928884
9
step 6
 O  1.2779619840 -0.2635696312 -0.1244945416
 C -1.2206735243 -0.2129182241  0.0155229754
 C  0.1186255780  0.5576453800  0.0458745717
 H -2.0440940178  0.4173634555  0.1247608828
 H -1.3173857523 -0.9334107059  0.7955709772
 H  0.1101600207  1.1571432143  0.9684338769
 H  1.2484840684 -0.9289490685  0.6105363827
 H  0.1597385787  1.2647588255 -0.7795162741
 H -1.3555850847 -0.7479733913 -0.9349365292
9
step 7
 O  1.2799646815 -0.2639160964 -0.1236664913
 C -1.2198428705 -0.2095545875  0.0186819039
 C  0.1209318783  0.5573235195  0.0461064795
 H -2.0547978339  0.4295604559  0.1345072845
 H -1.3223661168 -0.9351610098  0.8010402122
 H  0.1069659097  1.1627866501  0.9647595665
 H  1.2508838097 -0.9335692776  0.6071614757
 H  0.1653657260  1.2617252248 -0.7839450426
 H -1.3634382148 -0.7402728684 -0.9279250537
9
step 8
 O  1.2819835418 -0.2642721323 -0.1228087787
 C -1.2189666386 -0.2064232254  0.0215673399
 C  0.1231413604  0.5570325072  0.0463922554
 H -2.0674471820  0.4448208094  0.1443654548
 H -1.3261660692 -0.9380749795  0.8079697367
 H  0.1052002963  1.1679152771  0.9611531641
 H  1.2528607061 -0.9378705324  0.6039372954
 H  0.1704362476  1.2590248719 -0.7887930038
 H -1.3706670355 -0.7320999500 -0.9201972783
9
step 9
 O  1.2840201548 -0.2646367547 -0.1219213297
 C -1.2182068443 -0.2034389451  0.0242922731
 C  0.1252528099  0.5567911675  0.0467095675
 H -2.0802193841  0.4617867633  0.1541060534
 H -1.3286588810 -0.9415590409  0.8157568167
 H  0.1049716558  1.1725122786  0.9576633538
 H  1.2543782672 -0.9418640222  0.6009233432
 H  0.1748916861  1.2565007177 -0.7938502192
 H -1.3773092496 -0.7237553722 -0.9123136983
9
step 10
 O  1.2860752542 -0.2650086461 -0.1210048532
 C -1.2177132793 -0.2005185342  0.0269809844
 C  0.1272675858  0.5566173289  0.0470317588
 H -2.0913785750  0.4791101485  0.1634991485
 H -1.3297457854 -0.9449665137  0.8237436692
 H  0.1063558808  1.1765790889  0.9543508291
 H  1.2554070527 -0.9455696788  0.5981807056
 H  0.1786814174  1.2539845788 -0.7988810560
 H -1.3834328015 -0.7155707560 -0.9048890317
9
step 11
 O  1.2881486217 -0.2653865181 -0.1200604547
 C -1.2176068687 -0.1975898352  0.0297530942
 C  0.1291890134  0.5565257416  0.0473306430
 H -2.0994674413  0.4956021055  0.1723431135
 H -1.3293657782 -0.9476773548  0.8312983946
 H  0.1093954674  1.1801335257  0.9512837883
 H  1.2559248833 -0.9490105201  0.5957655405
 H  0.1817645456  1.2513196127 -0.8036516531
 H -1.3891236990 -0.7078647610 -0.8985110212
9
step 12
 O  1.2902390354 -0.2657694919 -0.1190892593
 C -1.2179714988 -0.1945967645  0.0327092576
 C  0.1310217925  0.5565264296  0.0475793370
 H -2.1034067824  0.5103168570  0.1804836185
 H -1.3275032002 -0.9491633770  0.8378812132
 H  0.1140997535  1.1832063594  0.9485316632
 H  1.2559169689 -0.9522067895  0.5937228425
 H  0.1841117247  1.2483803756 -0.8079555493
 H -1.3944694266 -0.7008976080 -0.8936553688
9
step 13
 O  1.2923442328 -0.2661574299 -0.1180921145
 C -1.2188517242 -0.1915017485  0.0359198577
 C  0.1327714849  0.5566236364  0.0477548362
 H -2.1025316545  0.5225898222  0.1878244844
 H -1.3241920403 -0.9490347414  0.8430920772
 H  0.1204458665  1.1858365859  0.9461576922
 H  1.2553760178 -0.9551708600  0.5920814631
 H  0.1857066430  1.2450885122 -0.8116348462
 H -1.3995414034 -0.6948316504 -0.8906109760
9
step 14
 O  1.2944608760 -0.2665511613 -0.1170694260
 C -1.2202533616 -0.1882866977  0.0394176797
 C  0.1344441231  0.5568154038  0.0478401117
 H -2.0965952185  0.5320524354  0.1943335860
 H -1.3195167684 -0.9470685647  0.8467003874
 H  0.1283799446  1.1880659251  0.9442111170
 H  1.2543023847 -0.9579037955  0.5908511443
 H  0.1865470224  1.2414229906 -0.8145952966
 H -1.4043810684 -0.6897061915 -0.8894308733
9
step 15
 O  1.2965845206 -0.2669525617 -0.1160211522
 C -1.2221447737 -0.1849531022  0.0431951228
 C  0.1360459729  0.5570937421  0.0478255664
 H -2.0857619376  0.5386398352  0.2000465359
 H -1.3136099656 -0.9432225106  0.8486594193
 H  0.1378182878  1.1899332428  0.9427199009
 H  1.2527042598 -0.9603942161  0.5900219709
 H  0.1866450757  1.2374244399 -0.8168145077
 H -1.4089936113 -0.6854323869 -0.8899202956
9
step 16
 O  1.2987096120 -0.2673644737 -0.1149469504
 C -1.2244578931 -0.1815215364  0.0472059475
 C  0.1375834693  0.5574453179  0.0477097345
 H -2.0705992758  0.5425989585  0.2050695599
 H -1.3066470586 -0.9376357521  0.8491076199
 H  0.1486483076  1.1914696630  0.9416849176
 H  1.2505978305 -0.9626197183  0.5895662724
 H  0.1860274080  1.2331935011 -0.8183429059
 H -1.4133510987 -0.6818092404 -0.8916647896
9
step 17
 O  1.3008295323 -0.2677904861 -0.1138464446
 C -1.2270893356 -0.1780306866  0.0513710050
 C  0.1390633365  0.5578525885  0.0474991352
 H -2.0520647309  0.5444952864  0.2095812639
 H -1.2988383646 -0.9306178438  0.8483572443
 H  0.1607294159  1.1926950978  0.9410765040
 H  1.2480073261 -0.9645506258  0.5894426778
 H  0.1847343623  1.2288832822 -0.8192973415
 H -1.4174037891 -0.6785564357 -0.8940914542
9
step 18
 O  1.3029367230 -0.2682346151 -0.1127195646
 C -1.2299031004 -0.1745356270  0.0555871338
 C  0.1404928789  0.5582953138  0.0472072425
 H -2.0314736331  0.5452064603  0.2138309894
 H -1.2904187025 -0.9226241592  0.8468690510
 H  0.1738942033  1.1936167502  0.9408340872
 H  1.2449648546 -0.9661554276  0.5896017361
 H  0.1828188356  1.2246862157 -0.8198474567
 H -1.4210961716 -0.6753563982 -0.8965496801
9
step 19
 O  1.3050228921 -0.2687009458 -0.1115668966
 C -1.2327371141 -0.1711043347  0.0597384899
 C  0.1418803982  0.5587523611  0.0468526016
 H -2.0104241373  0.5458809064  0.2181293788
 H -1.2816352249 -0.9142157973  0.8452110695
 H  0.1879503526  1.1942298767  0.9408692466
 H  1.2415099461 -0.9674069986  0.5899922788
 H  0.1803446589  1.2208160336 -0.8201954486
 H -1.4243835971 -0.6718976541 -0.8983963181
9
step 20
 O  1.3070792984 -0.2691932939 -0.1103899857
 C -1.2354158544 -0.1678106775  0.0637098139
 C  0.1432356412  0.5592036746  0.0464562389
 H -1.9906542056  0.5478337031  0.2228254434
 H -1.2727348010 -0.9060031722  0.8440006875
 H  0.2026836560  1.1945207578  0.9410721059
 H  1.2376887556 -0.9682885705  0.5905675820
 H  0.1773847411  1.2174862487 -0.8205507380
 H -1.4272461947 -0.6679135600 -0.8990732122
9
step 21
 O  1.3090970783 -0.2697149432 -0.1091915465
 C -1.2377698279 -0.1647222598  0.0674011118
 C  0.1445701444  0.5596322158  0.0460386472
 H -1.9738200818  0.5523598406  0.2282657212
 H -1.2639528732 -0.8985761228  0.8438327710
 H  0.2178622682  1.1944715006  0.9413204445
 H  1.2335529686 -0.9687984764  0.5912904245
 H  0.1740192813  1.2148873524 -0.8211021982
 H -1.4296983396 -0.6632131883 -0.8981698196
9
step 22
 O  1.3110675605 -0.2702684958 -0.1079755573
 C -1.2396593557 -0.1618836499  0.0707426137
 C  0.1458973323  0.5600256418  0.0456167535
 H -1.9612233775  0.5604775901  0.2347373153
 H -1.2555057015 -0.8924285133  0.8452015253
 H  0.2332420215  1.1940660418  0.9414905152
 H  1.2291585527 -0.9689529055  0.5921363199
 H  0.1703343656  1.2131655803 -0.8219916356
 H -1.4317934669 -0.6577031509 -0.8954676823
9
step 23
 O  1.3129825131 -0.2708558554 -0.1067472294
 C -1.2409960074 -0.1592994987  0.0737077581
 C  0.1472322633  0.5603774873  0.0452013360
 H -1.9535628591  0.5726675898  0.2424073778
 H -1.2475869666 -0.8878899001  0.8484284790
 H  0.2485724120  1.1932965749  0.9414683518
 H  1.2245645565 -0.9687862437  0.5930944901
 H  0.1664211171  1.2124062564 -0.8232926871
 H -1.4336249580 -0.6513998311 -0.8909655248
9
step 24
 O  1.3148342872 -0.2714783432 -0.1055128511
 C -1.2417533681 -0.1569250594  0.0763210906
 C  0.1485910097  0.5606876806  0.0447953129
 H -1.9508088595  0.5887107498  0.2512804142
 H -1.2403680595 -0.8850784330  0.8536109814
 H  0.2636028719  1.1921695960  0.9411603680
 H  1.2198321176 -0.9683489503  0.5941665022
 H  0.1623752908  1.2126242202 -0.8249988416
 H -1.4353239229 -0.6444311723 -0.8848837497
9
step 25
 O  1.3166158683 -0.2721369301 -0.1042795067
 C -1.2419625639 -0.1546698173  0.0786583748
 C  0.1499897729  0.5609623182  0.0443931779
 H -1.9522569116  0.6077034749  0.2611919315
 H -1.2339999441 -0.8838860687  0.8606032158
 H  0.2780891224  1.1907108240  0.9405022073
 H  1.2150237246 -0.9677032690  0.5953628443
 H  0.1582969454  1.2137627742 -0.8270228757
 H -1.4370540433 -0.6370266076 -0.8776460224
9
step 26
 O  1.3183208732 -0.2728325480 -0.1030546845
 C -1.2416953799 -0.1524134299  0.0808381142
 C  0.1514439170  0.5612127376  0.0439816522
 H -1.9567312985  0.6282439263  0.2718409739
 H -1.2286141510 -0.8839997309  0.8690349271
 H  0.2917995426  1.1889683853  0.9394650027
 H  1.2102026530 -0.9669173563  0.5966980291
 H  0.1542897595  1.2157012235 -0.8292079281
 H -1.4390027334 -0.6294937263 -0.8698350393
9
step 27
 O  1.3199435327 -0.2735664292 -0.1018458112
 C -1.2410430578 -0.1500272861  0.0830060242
 C  0.1529671179  0.5614540325  0.0435414089
 H -1.9628466443  0.6487043112  0.2828468205
 H -1.2243214410 -0.8849528618  0.8783638918
 H  0.3045214195  1.1870138350  0.9380584038
 H  1.2054324615 -0.9660586536  0.5981850552
 H  0.1504597112  1.2182697059 -0.8313483089
 H -1.4413674402 -0.6221814425 -0.8621211658
9
step 28
 O  1.3214786778 -0.2743404096 -0.1006597799
 C -1.2400984068 -0.1473942373  0.0853155205
 C  0.1545707655  0.5617032509  0.0430495830
 H -1.9692385375  0.6674898696  0.2938092516
 H -1.2212082292 -0.8861947398  0.8879502226
 H  0.3160667191  1.1849407914  0.9363299899
 H  1.2007764629 -0.9651874743  0.5998301734
 H  0.1469130880  1.2212689355 -0.8332165449
 H -1.4443365408 -0.6154320053 -0.8551676030
9
step 29
 O  1.3229217242 -0.2751571318 -0.0995025485
 C -1.2389446867 -0.1444224179  0.0879076842
 C  0.1562636651  0.5619775506  0.0424827045
 H -1.9747202102  0.6832262838  0.3043578443
 H -1.2193319930 -0.8871628940  0.8971371504
 H  0.3262768580  1.1828611862  0.9343610150
 H  1.1962971242 -0.9643517935  0.6016288686
 H  0.1437539989  1.2244919547 -0.8345925096
 H -1.4480660595 -0.6095279054 -0.8495237176
9
step 30
 O  1.3242686409 -0.2760200980 -0.0983788757
 C -1.2376507130 -0.1410527054  0.0908938482
 C  0.1580519991  0.5622925647  0.0418197098
 H -1.9783667271  0.6948670923  0.3141855105
 H -1.2187171148 -0.8873469849  0.9053247910
 H  0.3350260172  1.1808993490  0.9322588024
 H  1.1920553566 -0.9635840397  0.6035637664
 H  0.1410816473  1.2277450970 -0.8352908019
 H -1.4526557217 -0.6046433640 -0.8455263388
9
step 31
 O  1.3255159005 -0.2769335473 -0.0972922323
 C -1.2362696918 -0.1372611721  0.0943432342
 C  0.1599394628  0.5626611537  0.0410447432
 H -1.9795495584  0.7017415531  0.3230683687
 H -1.2193521421 -0.8863381256  0.9120286343
 H  0.3422227948  1.1791843470  0.9301464439
 H  1.1881096382 -0.9629003386  0.6056048423
 H  0.1389876159  1.2308659630 -0.8351835000
 H -1.4581295819 -0.6008115261 -0.8432323702
9
step 32
 O  1.3266604189 -0.2779021656 -0.0962448876
 C -1.2348391872 -0.1330581496  0.0982769707
 C  0.1619274768  0.5630926316  0.0401495361
 H -1.9779463318  0.7035697117  0.3308766660
 H -1.2211887999 -0.8838627749  0.9169200841
 H  0.3478103152  1.1778411805  0.9281507290
 H  1.1845149111 -0.9623022250  0.6077119293
 H  0.1375533536  1.2337369827 -0.8342165227
 H -1.4644264074 -0.5979158592 -0.8424009020
9
step 33
 O  1.3276995040 -0.2789306632 -0.0952381382
 C -1.2333804703 -0.1284852551  0.1026684443
 C  0.1640153952  0.5635924796  0.0391351977
 H -1.9735433496  0.7004651444  0.3375811555
 H -1.2241426508 -0.8798032225  0.9198501383
 H  0.3517651712  1.1769815868  0.9263894274
 H  1.1813212188 -0.9617804210  0.6098391452
 H  0.1368480005  1.2362937872 -0.8324186978
 H -1.4714027704 -0.5957078658 -0.8425296352
9
step 34
 O  1.3286308319 -0.2800232841 -0.0942726245
 C -1.2318966365 -0.1236113897  0.1074487061
 C  0.1662006671  0.5641625266  0.0380132787
 H -1.9666388854  0.6929351370  0.3432575339
 H -1.2280951716 -0.8742071028  0.9208585743
 H  0.3540957002  1.1766953323  0.9249591759
 H  1.1785721220 -0.9613199658  0.6119405691
 H  0.1369266631  1.2385279993 -0.8299031205
 H -1.4788482986 -0.5938458889 -0.8429349306
9
step 35
 O  1.3294524623 -0.2811833230 -0.0933486696
 C -1.2303699807 -0.1185282524  0.1125151064
 C  0.1684789435  0.5648015618  0.0368059715
 H -1.9578455130  0.6818764790  0.3480889844
 H -1.2328970907 -0.8672870395  0.9201703082
 H  0.3548400824  1.1770429380  0.9239252674
 H  1.1763030195 -0.9609057958  0.6139763181
 H  0.1378292588  1.2404842193 -0.8268605930
 H -1.4865094840 -0.5919451205 -0.8428548199
9
step 36
 O  1.3301628945 -0.2824127262 -0.0924665815
 C -1.2287600762 -0.1133451601  0.1177416650
 C  0.1708441639  0.5655063396  0.0355453330
 H -1.9480797890  0.6685535917  0.3523637894
 H -1.2383729433 -0.8594094929  0.9181789608
 H  0.3540646161  1.1780507466  0.9233145523
 H  1.1745395922 -0.9605278482  0.6159181206
 H  0.1395800596  1.2422511107 -0.8235451347
 H -1.4941171704 -0.5896285786 -0.8415535056
9
step 37
 O  1.3307611530 -0.2837118408 -0.0916268666
 C -1.2270047807 -0.1081820439  0.1229905794
 C  0.1732886772  0.5662729212  0.0342714765
 H -1.9385180357  0.6545357542  0.3564617682
 H -1.2443267663 -0.8510701735  0.9154162035
 H  0.3518623422  1.1797090509  0.9231123909
 H  1.1732966389 -0.9601848603  0.6177535332
 H  0.1421880452  1.2439467968 -0.8202520158
 H -1.5014134110 -0.5865717822 -0.8384120889
9
step 38
 O  1.3312468855 -0.2850793501 -0.0908303246
 C -1.2250267269 -0.1031589199  0.1281251258
 C  0.1758034574  0.5670982507  0.0330297976
 H -1.9304916031  0.6415665313  0.3608212776
 H -1.2505486117 -0.8428529650  0.9125051661
 H  0.3483520123  1.1819736577  0.9232641246
 H  1.1725775411 -0.9598862498  0.6194881155
 H  0.1456480707  1.2456994118 -0.8172896407
 H -1.5081749654 -0.5825377375 -0.8329985024
9
step 39
 O  1.3316204563 -0.2865123983 -0.0900780117
 C -1.2227470744 -0.0983807751  0.1330243636
 C  0.1783784455  0.5679817979  0.0318674660
 H -1.9253027804  0.6313504429  0.3658806303
 H -1.2568211385 -0.8353709713  0.9100978079
 H  0.3436772799  1.1847707993  0.9236809326
 H  1.1723744869 -0.9596517443  0.6211451499
 H  0.1499426675  1.2476245988 -0.8149478171
 H -1.5142323103 -0.5774017286 -0.8251158051
9
step 40
 O  1.3318830137 -0.2880068758 -0.0893710829
 C -1.2201055592 -0.0939193959  0.1375990920
 C  0.1810030036  0.5689270276  0.0308295823
 H -1.9239736910  0.6252778224  0.3719973966
 H -1.2629251929 -0.8291924476  0.9087998976
 H  0.3380059301  1.1880048340  0.9242493423
 H  1.1726694492 -0.9595087579  0.6227628429
 H  0.1550440550  1.2498027642 -0.8134661477
 H -1.5194840651 -0.5711664930 -0.8148305025
9
step 41
 O  1.3320365136 -0.2895578135 -0.0887105355
 C -1.2170815104 -0.0897975013  0.1418066296
 C  0.1836664116  0.5699424178  0.0299555072
 H -1.9269912053  0.6241601873  0.3793652049
 H -1.2686433663 -0.8247604219  0.9090924923
 H  0.3315289280  1.1915678276  0.9248432176
 H  1.1734357627 -0.9594878548  0.6243893195
 H  0.1609157805  1.2522596196 -0.8130069824
 H -1.5239069300 -0.5639678350 -0.8024816398
9
step 42
 O  1.3320836864 -0.2911598296 -0.0880968848
 C -1.2137073594 -0.0859825679  0.1456603399
 C  0.1863583191  0.5710417740  0.0292758712
 H -1.9341474667  0.6280777782  0.3879597965
 H -1.2737612675 -0.8223207800  0.9112637137
 H  0.3244590044  1.1953499658  0.9253368350
 H  1.1746400358 -0.9596169353  0.6260760844
 H  0.1675134610  1.2549535705 -0.8136371677
 H -1.5275604863 -0.5560692854 -0.7886683173
9
step 43
 O  1.3320279371 -0.2928075887 -0.0875298151
 C -1.2100681031 -0.0823947327  0.1492300275
 C  0.1890690950  0.5722436833  0.0288106628
 H -1.9445528363  0.6364070428  0.3975395903
 H -1.2780674778 -0.8218761302  0.9153663692
 H  0.3170284241  1.1992498314  0.9256176661
 H  1.1762441276 -0.9599149894  0.6278709313
 H  0.1747844588  1.2577726528 -0.8153216282
 H -1.5305846610 -0.5478430532 -0.7742099763
9
step 44
 O  1.3318731827 -0.2944962339 -0.0870078632
 C -1.2062871761 -0.0789262525  0.1526318000
 C  0.1917900725  0.5735700992  0.0285686086
 H -1.9568163008  0.6480097696  0.4077003495
 H -1.2813541966 -0.8231788010  0.9212130232
 H  0.3094856374  1.2031837393  0.9255976117
 H  1.1782069768 -0.9603864133  0.6298114479
 H  0.1826667868  1.2605420699 -0.8179298488
 H -1.5331860978 -0.5397343872 -0.7600729502
9
step 45
 O  1.3316236507 -0.2962217425 -0.0865281973
 C -1.2025057990 -0.0754648250  0.1560092217
 C  0.1945137138  0.5750442143  0.0285478381
 H -1.9693111047  0.6614950572  0.4179585788
 H -1.2834206184 -0.8257658756  0.9284105840
 H  0.3020907442  1.2070934180  0.9252216289
 H  1.1804860733 -0.9610169242  0.6319201917
 H  0.1910878505  1.2630413335 -0.8212540514
 H -1.5356097022 -0.5322085693 -0.7472609936
9
step 46
 O  1.3312836712 -0.2979811473 -0.0860865472
 C -1.1988640482 -0.0719133714  0.1595097967
 C  0.1972337152  0.5766879185  0.0287376310
 H -1.9804284413  0.6754603061  0.4278327695
 H -1.2840799116 -0.8290268328  0.9364253384
 H  0.2951099737  1.2109513648  0.9244729308
 H  1.1830384073 -0.9617719016  0.6342023734
 H  0.1999636420  1.2650282014 -0.8250359151
 H -1.5380948969 -0.5256845633 -0.7366778741
9
step 47
 O  1.3308574905 -0.2997725753 -0.0856773198
 C -1.1954881685 -0.0682027307  0.1632615377
 C  0.1999450478  0.5785192058  0.0291209107
 H -1.9887618617  0.6886613393  0.4369036618
 H -1.2831690044 -0.8322865245  0.9446622513
 H  0.2888095349  1.2147632806  0.9233742429
 H  1.1858208285 -0.9625975750  0.6366464850
 H  0.2091987724  1.2662655972 -0.8289976119
 H -1.5408226893 -0.5204659808 -0.7289843180
9
step 48
 O  1.3303491253 -0.3015950871 -0.0852938983
 C -1.1924839978 -0.0642972044  0.1673540266
 C  0.2026439084  0.5805498714  0.0296771050
 H -1.9932141071  0.7001085314  0.4448500882
 H -1.2805592723 -0.8348861187  0.9525421786
 H  0.2834491819  1.2185671713  0.9219849451
 H  1.1887898725 -0.9634249656  0.6392278002
 H  0.2186874482  1.2665477288 -0.8328729236
 H -1.5438667384 -0.5166854425 -0.7244826881
9
step 49
 O  1.3297622651 -0.3034483392 -0.0849290882
 C -1.1899337083 -0.0601944433  0.1718271178
 C  0.2053275572  0.5827837458  0.0303850270
 H -1.9930465577  0.7091103770  0.4514661917
 H -1.2761661524 -0.8362504012  0.9595658907
 H  0.2792757127  1.2224289800  0.9203942729
 H  1.1919012201 -0.9641760194  0.6419141721
 H  0.2283152968  1.2657224366 -0.8364350365
 H -1.5471642983 -0.5142782495 -0.7230619105
9
step 50
 O  1.3291002218 -0.3053321316 -0.0845756471
 C -1.1878928925 -0.0559215073  0.1766683378
 C  0.2079940522  0.5852156163  0.0312255077
 H -1.9878976638  0.7152898649  0.4566681590
 H -1.2699563381 -0.8359370470  0.9653605533
 H  0.2765164923  1.2264349658  0.9187110799
 H  1.1951090445 -0.9647710178  0.6446731824
 H  0.2379618720  1.2637078970 -0.8395187522
 H -1.5505177822 -0.5129934124 -0.7242187143
9
step 51
 O  1.3283659174 -0.3072459292 -0.0842268239
 C -1.1863864172 -0.0515289716  0.1818176948
 C  0.2106419345  0.5878309104  0.0321835870
 H -1.9777903961  0.7185926396  0.4604969970
 H -1.2619519035 -0.8336686069  0.9697093186
 H  0.2753730524  1.2306814191  0.9170509859
 H  1.1983655378 -0.9651361858  0.6474795156
 H  0.2475036568  1.2605027093 -0.8420358028
 H -1.5536266400 -0.5124378023 -0.7271464285
9
step 52
 O  1.3275618983 -0.3091884509 -0.0838768346
 C -1.1854032188 -0.0470848108  0.1871770830
 C  0.2132699568  0.5906061741  0.0332501110
 H -1.9631380566  0.7192963927  0.4631207661
 H -1.2522310946 -0.8293498869  0.9725667299
 H  0.2760148694  1.2352626610  0.9155220750
 H  1.2016208780 -0.9652104156  0.6503214202
 H  0.2568173713  1.2561889225 -0.8439824833
 H -1.5561388547 -0.5121394704 -0.7308633027
9
step 53
 O  1.3266903607 -0.3111574074 -0.0835212110
 C -1.1848915351 -0.0426691834  0.1926214241
 C  0.2158769705  0.5935103428  0.0344225904
 H -1.9447462131  0.7180206423  0.4648360842
 H -1.2409256182 -0.8230727659  0.9740621950
 H  0.2785735243  1.2402585844  0.9142106444
 H  1.2048238054 -0.9649501770  0.6532052496
 H  0.2657833566  1.2509277825 -0.8454389836
 H -1.5577073243 -0.5116139166 -0.7343479333
9
step 54
 O  1.3257531807 -0.3131494443 -0.0831569722
 C -1.1847567976 -0.0383700927  0.1980098862
 C  0.2184620705  0.5965067589  0.0357051681
 H -1.9237969089  0.7157248613  0.4660648004
 H -1.2282143191 -0.8151086118  0.9744919849
 H  0.2831375656  1.2457231943  0.9131687364
 H  1.2079228559 -0.9643319379  0.6561573220
 H  0.2742887500  1.2449481564 -0.8465598822
 H -1.5580391809 -0.5104215734 -0.7366581837
9
step 55
 O  1.3247518505 -0.3151603925 -0.0827827419
 C -1.1848646206 -0.0342785433  0.2031970533
 C  0.2210251187  0.5995558709  0.0371077067
 H -1.9017912058  0.7136711638  0.4673376548
 H -1.2143139816 -0.8058866564  0.9742984553
 H  0.2897478761  1.2516756188  0.9124052707
 H  1.2108691768 -0.9633506722  0.6592238313
 H  0.2822298813  1.2385282742 -0.8475553350
 H -1.5569320486 -0.5082117246 -0.7370235595
9
step 56
 O  1.3236876785 -0.3171854891 -0.0823982303
 C -1.1850516168 -0.0304803705  0.2080453600
 C  0.2235673407  0.6026181773  0.0386434268
 H -1.8804207327  0.7133185090  0.4692546238
 H -1.1994660703 -0.7959557613  0.9740334083
 H  0.2983963348  1.2580948436  0.9118819537
 H  1.2136168551 -0.9620186852  0.6624643404
 H  0.2895145673  1.2319707380 -0.8486646053
 H -1.5542968404 -0.5047532910 -0.7349109619
9
step 57
 O  1.3225617636 -0.3192199685 -0.0820039779
 C -1.1851443723 -0.0270427695  0.2124396551
 C  0.2260922440  0.6056574133  0.0403260333
 H -1.8613535168  0.7161224268  0.4724128632
 H -1.1839244805 -0.7859284600  0.9743047932
 H  0.3090247314  1.2649188578  0.9115151028
 H  1.2161259950 -0.9603592015  0.6659458264
 H  0.2960626010  1.2255748056 -0.8501225039
 H -1.5501691027 -0.4999556157 -0.7300696017
9
step 58
 O  1.3213750663 -0.3212596336 -0.0816008568
 C -1.1849844759 -0.0239954942  0.2163040450
 C  0.2286063964  0.6086433607  0.0421661358
 H -1.8459553411  0.7232472659  0.4773056970
 H -1.1679450856 -0.7764095182  0.9757073263
 H  0.3215261769  1.2720483326  0.9111830276
 H  1.2183647430 -0.9583994739  0.6697339473
 H  0.3018055561  1.2196081361 -0.8521235417
 H -1.5447121427 -0.4938816307 -0.7225593055
9
step 59
 O  1.3201285044 -0.3233013784 -0.0811895496
 C -1.1844524786 -0.0213120531  0.2196184604
 C  0.2311198769  0.6115539421  0.0441676246
 H -1.8350240495  0.7352612809  0.4842157976
 H -1.1517803392 -0.7679164449  0.9787431216
 H  0.3357483303  1.2793542651  0.9107380890
 H  1.2203108551 -0.9561636392  0.6738837602
 H  0.3066860228  1.2142822867 -0.8547888445
 H -1.5382135699 -0.4867534725 -0.7127627288
9
step 60
 O  1.3188230498 -0.3253435834 -0.0807700921
 C -1.1834815332 -0.0189002421  0.2224301164
 C  0.2336462365  0.6143763191  0.0463246444
 H -1.8286444096  0.7519361599  0.4931422629
 H -1.1356801315 -0.7608049809  0.9837440567
 H  0.3514981285  1.2866885995  0.9100218719
 H  1.2219526615 -0.9536665715  0.6784312962
 H  0.3106568909  1.2097357055 -0.8581416684
 H -1.5310745132 -0.4789472081 -0.7013755692
9
step 61
 O  1.3174597989 -0.3273863416 -0.0803415561
 C -1.1820553774 -0.0166095071  0.2248547507
 C  0.2362019560  0.6171068835  0.0486197620
 H -1.8262311085  0.7722516145  0.5037949323
 H -1.1198973150 -0.7552159031  0.9908120169
 H  0.3685478301  1.2938966505  0.9088816232
 H  1.2232893823 -0.9509098145  0.6833873992
 H  0.3136813154  1.2060267609 -0.8620964473
 H -1.5237878601 -0.4709703336 -0.6893625379
9
step 62
 O  1.3160399948 -0.3294315034 -0.0799019275
 C -1.1801937949 -0.0142544406  0.2270649990
 C  0.2388055354  0.6197502042  0.0510237086
 H -1.8267323503  0.7946054501  0.5156579607
 H -1.1046937380 -0.7510574396  0.9997930467
 H  0.3866424089  1.3008301199  0.9071860959
 H  1.2243307804 -0.9478803017  0.6887349759
 H  0.3157337532  1.2031375129 -0.8664639267
 H -1.5169001250 -0.4634148937 -0.6778642586
9
step 63
 O  1.3145650107 -0.3314825426 -0.0794482064
 C -1.1779347482 -0.0116458275  0.2292670592
 C  0.2414764091  0.6223171395  0.0534967467
 H -1.8288946135  0.8171297591  0.5280926645
 H -1.0903419810 -0.7480288890  1.0102944843
 H  0.4055083163  1.3073594710  0.9048391341
 H  1.2250961640 -0.9445520784  0.6944302686
 H  0.3168020401  1.2009869749 -0.8709717094
 H -1.5109533449 -0.4568825894 -0.6680467066
9
step 64
 O  1.3130363218 -0.3335442542 -0.0789767226
 C -1.1753214270 -0.0086192308  0.2316700870
 C  0.2442338585  0.6248224281  0.0559913670
 H -1.8314921222  0.8379926421  0.5404412303
 H -1.0771198803 -0.7456787444  1.0217419909
 H  0.4248632545  1.3133844436  0.9017897153
 H  1.2256128142 -0.9408907119  0.7004080302
 H  0.3168900662  1.1994510366 -0.8752964886
 H -1.5064103370 -0.4518875098 -0.6609041586
9
step 65
 O  1.3114554975 -0.3356223097 -0.0784836229
 C -1.1723968599 -0.0050550284  0.2344549194
 C  0.2470960136  0.6272821205  0.0584558061
 H -1.8334768252  0.8556144607  0.5521066472
 H -1.0652981668 -0.7434811548  1.0334618954
 H  0.4444261416  1.3188416543  0.8980376963
 H  1.2259140181 -0.9368596162  0.7065897468
 H  0.3160203963  1.1983854380 -0.8791024143
 H -1.5035772334 -0.4487554052 -0.6570551730
9
step 66
 O  1.3098242294 -0.3377227180 -0.0779654593
 C -1.1692036300 -0.0008882777  0.2377493630
 C  0.2500789674  0.6297111876  0.0608378322
 H -1.8340534858  0.8687890423  0.5626029434
 H -1.0551241548 -0.7409126971  1.0447694458
 H  0.4639262594  1.3237085891  0.8936350738
 H  1.2260369672 -0.9324272150  0.7128935307
 H  0.3142362167  1.1976483185 -0.8820798513
 H -1.5025454440 -0.4475486003 -0.6565928507
9
step 67
 O  1.3081443942 -0.3398512630 -0.0774197834
 C -1.1657844297  0.0038905410  0.2416155218
 C  0.2531959957  0.6321215693  0.0630883581
 H -1.8327061354  0.8767352248  0.5715815866
 H -1.0468051541 -0.7375165806  1.0550467145
 H  0.4831107807  1.3280037409  0.8886830034
 H  1.2260207895 -0.9275737628  0.7192441132
 H  0.3116021941  1.1971196944 -0.8839798933
 H -1.5031733933 -0.4480430294 -0.6590443796
9
step 68
 O  1.3064181309 -0.3420130004 -0.0768456572
 C -1.1621803731  0.0092414560  0.2460504214
 C  0.2564568771  0.6345208300  0.0651646102
 H -1.8292022761  0.8791109939  0.5788434527
 H -1.0404943815 -0.7329490982  1.0638015273
 H  0.5017502915  1.3317830483  0.8833250622
 H  1.2259049279 -0.9222967485  0.7255814650
 H  0.3082040572  1.1967162791 -0.8846415879
 H -1.5051145628 -0.4497657545 -0.6634555008
9
step 69
 O  1.3046479156 -0.3442118877 -0.0762439980
 C -1.1584263698  0.0150844422  0.2509965759
 C  0.2598673396  0.6369115103  0.0670327144
 H -1.8235923666  0.8760141332  0.5843442731
 H -1.0362806989 -0.7270091018  1.0707060463
 H  0.5196422995  1.3351330696  0.8777373411
 H  1.2257279785 -0.9166140487  0.7318668634
 H  0.3041468998  1.1964009421 -0.8840101634
 H -1.5078805822 -0.4520780446 -0.6685662282
9
step 70
 O  1.3028366143 -0.3464505967 -0.0756177010
 C -1.1545447201  0.0213094051  0.2563568796
 C  0.2634286820  0.6392911957  0.0686696138
 H -1.8162118194  0.8679801749  0.5881977764
 H -1.0341824150 -0.7196538243  1.0756177479
 H  0.5366129128  1.3381615322  0.8721160712
 H  1.2255270222 -0.9105643556  0.7380856026
 H  0.2995523189  1.1961866046 -0.8821453278
 H -1.5109179575 -0.4542758977 -0.6730175516
9
step 71
 O  1.3009875079 -0.3487305300 -0.0749715110
 C -1.1505388364  0.0277850771  0.2620091536
 C  0.2671376326  0.6416532821  0.0700642149
 H -1.8076830289  0.8559748982  0.5906761933
 H -1.0341449881 -0.7110040304  1.0785862596
 H  0.5525169536  1.3409860895  0.8666636660
 H  1.2253374114 -0.9042047986  0.7442459761
 H  0.2945545993  1.1961345409 -0.8792190295
 H -1.5136789271 -0.4556825880 -0.6755363068
9
step 72
 O  1.2991042892 -0.3510520244 -0.0743116483
 C -1.1463890609  0.0343671268  0.2678184568