8
step 0
 C -0.7682046172  0.0229496385  0.0213316701
 C  0.7681795839 -0.0229994963 -0.0213314163
 H  1.1814065967 -0.0040606968  0.9828590590
 H  1.1633014527  0.8291582115 -0.5665097895
 H  1.1122336593 -0.9285618996 -0.5123455147
 H -1.1633362282 -0.8293548072  0.5662734898
 H -1.1122589298  0.9283806265  0.5125899609
 H -1.1814215175  0.0042884234 -0.9828674592
8
step 1
 C -0.7681254465  0.0230866339  0.0220869628
 C  0.7653614514 -0.0176534529 -0.0164932687
 H  1.1885158262 -0.0039390942  0.9833552753
 H  1.1728566547  0.8188364673 -0.5590681217
 H  1.1015575500 -0.9212123504 -0.5171376787
 H -1.1732824537 -0.8216268891  0.5624996743
 H -1.1106720618  0.9230329906  0.5089686014
 H -1.1763115204 -0.0007243052 -0.9842114448
8
step 2
 C -0.7680385968  0.0232320306  0.0228027584
 C  0.7625374412 -0.0123733240 -0.0116030388
 H  1.1955290332 -0.0038951317  0.9839294068
 H  1.1825372148  0.8094308567 -0.5520543719
 H  1.0908939009 -0.9138821200 -0.5217727013
 H -1.1832424121 -0.8143190710  0.5590012002
 H -1.1094216578  0.9183483576  0.5055757873
 H -1.1711456297 -0.0056512832 -0.9855445834
8
step 3
 C -0.7679400730  0.0233935558  0.0234387639
 C  0.7597258571 -0.0072588552 -0.0066496238
 H  1.2022915835 -0.0040086389  0.9846485386
 H  1.1923814167  0.8018497017 -0.5459074794
 H  1.0803418901 -0.9066496540 -0.5260557605
 H -1.1931444597 -0.8078672350  0.5560553146
 H -1.1088399015  0.9149843267  0.5026397201
 H -1.1659107713 -0.0103699543 -0.9868496550
8
step 4
 C -0.7678332236  0.0235820769  0.0239665055
 C  0.7569511069 -0.0023916298 -0.0016305871
 H  1.2086491459 -0.0043563717  0.9855735005
 H  1.2023639188  0.7967991309 -0.5409461473
 H  1.0700069968 -0.8995981946 -0.5298022429
 H -1.2028915287 -0.8026129976  0.5538805438
 H -1.1092071171  0.9134632759  0.5003180962
 H -1.1606003324 -0.0147647746 -0.9881195688
8
step 5
 C -0.7677323143  0.0238142680  0.0243746940
 C  0.7542470089  0.0021729312  0.0034435790
 H  1.2144521184 -0.0050073718  0.9867606401
 H  1.2123496408  0.7946954923 -0.5373099485
 H  1.0600030258 -0.8928173210 -0.5328479468
 H -1.2123465995 -0.7987655759  0.5526126793
 H -1.1107210326  0.9140967624  0.4986638965
 H -1.1552168686 -0.0187318000 -0.9893621697
8
step 6
 C -0.7676645170  0.0241143483  0.0246719900
 C  0.7516582935  0.0064092250  0.0085476155
 H  1.2195599666 -0.0060184896  0.9882629964
 H  1.2220677477  0.7956257197 -0.5349307148
 H  1.0504528723 -0.8864018100 -0.5350574007
 H -1.2213248576 -0.7963815929  0.5522918875
 H -1.1134765224  0.9169390433  0.4976071370
 H -1.1497734469 -0.0221827171 -0.9906016728
8
step 7
 C -0.7676696308  0.0245142138  0.0248864439
 C  0.7492393585  0.0103200429  0.0136427981
 H  1.2238451464 -0.0074304184  0.9901304985
 H  1.2311167097  0.7993646545 -0.5335425978
 H  1.0414877390 -0.8804479173 -0.5363295189
 H -1.2295955984 -0.7953663818  0.5528631239
 H -1.1174603328  0.9217814725  0.4969581603
 H -1.1442934988 -0.0250479774 -0.9918761329
8
step 8
 C -0.7677974055  0.0250517850  0.0250616870
 C  0.7470502712  0.0139308660  0.0186810489
 H  1.2271963820 -0.0092645683  0.9924092291
 H  1.2390007796  0.8054407850 -0.5327268507
 H  1.0332447200 -0.8750476986 -0.5366002297
 H -1.2368946321 -0.7954957089  0.5541892396
 H -1.1225615569  0.9281888883  0.4964322750
 H -1.1388092944 -0.0272788188 -0.9932311271
8
step 9
 C -0.7681029463  0.0257679756  0.0252507308
 C  0.7451509454  0.0172817484  0.0236106767
 H  1.2295211529 -0.0115210234  0.9951400750
 H  1.2451876498  0.8132293713 -0.5319774603
 H  1.0258629081 -0.8702822472 -0.5358421189
 H -1.2429453137 -0.7964527103  0.5560736879
 H -1.1285946652  0.9355680565  0.4956897561
 H -1.1333593756 -0.0288481116 -0.9947106113
8
step 10
 C -0.7686410791  0.0267030404  0.0255086728
 C  0.7435948597  0.0204188077  0.0283823263
 H  1.2307473153 -0.0141776708  0.9983571423
 H  1.2491722680  0.8220498511 -0.5307709785
 H  1.0194784086 -0.8662147104 -0.5340614947
 H -1.2474844227 -0.7978726443  0.5582883768
 H -1.1353294629  0.9432518218  0.4943820775
 H -1.1279854599 -0.0297501312 -0.9963465183
8
step 11
 C -0.7694606251  0.0278930576  0.0258856032
 C  0.7424235128  0.0233867682  0.0329540564
 H  1.2308238508 -0.0171904158  1.0020861968
 H  1.2505338911  0.8312509368 -0.5286277939
 H  1.0142188008 -0.8628837794 -0.5312935739
 H -1.2502885541 -0.7993881609  0.5606021994
 H -1.1425221532  0.9505827357  0.4921956901
 H -1.1227294194 -0.0299994895 -0.9981489800
8
step 12
 C -0.7705993358  0.0293670313  0.0264206671
 C  0.7416622975  0.0262231965  0.0372950465
 H  1.2297208170 -0.0204942608  1.0063432303
 H  1.2489792771  0.8402761168 -0.5251587115
 H  1.0101976422 -0.8602981725 -0.5275966787
 H -1.2511973598 -0.8006695511  0.5628067587
 H -1.1499432128  0.9569847962  0.4888875730
 H -1.1176309112 -0.0296295357 -1.0000990120
8
step 13
 C -0.7720799298  0.0311447751  0.0271378016
 C  0.7413179655  0.0289544629  0.0413879292
 H  1.2274286472 -0.0240049907  1.0111331632
 H  1.2443704896  0.8487095223 -0.5200962495
 H  1.0075095582 -0.8584325335 -0.5230463884
 H -1.2501312724 -0.8014567378  0.5647371379
 H -1.1573998547  0.9620180642  0.4843102219
 H -1.1127260902 -0.0286905367 -1.0021451298
8
step 14
 C -0.7739074156  0.0332355082  0.0280433000
 C  0.7413775525  0.0315931947  0.0452299851
 H  1.2239570001 -0.0276212631  1.0164487217
 H  1.2367389252  0.8563054747 -0.5133128375
 H  1.0062263381 -0.8572251520 -0.5177304843
 H -1.2471025882 -0.8015816777  0.5662867160
 H -1.1647525089  0.9654155580  0.4784262168
 H -1.1080475968 -0.0272478735 -1.0042047527
8
step 15
 C -0.7760677403  0.0356370149  0.0291251444
 C  0.7418085654  0.0341370024  0.0488334472
 H  1.2193333733 -0.0312270265  1.0222696477
 H  1.2262876838  0.8630049326 -0.5048282565
 H  1.0063943166 -0.8565779330 -0.5117452803
 H -1.2422195864 -0.8009808935  0.5674156865
 H -1.1719255477  0.9671038955  0.4713135417
 H -1.1036257368 -0.0253803600 -1.0061705258
8
step 16
 C -0.7785277801  0.0383352720  0.0303539854
 C  0.7425603142  0.0365684523  0.0522250105
 H  1.2136016626 -0.0346943226  1.0285625397
 H  1.2133832286  0.8689397634 -0.4948071779
 H  1.0080331852 -0.8563590073 -0.5051935919
 H -1.2356836787 -0.7996980871  0.5681531368
 H -1.1789124383  0.9672089190  0.4631626636
 H -1.0994905372 -0.0231786486 -1.0079209665
8
step 17
 C -0.7812367263  0.0413045687  0.0316856560
 C  0.7435664046  0.0388565043  0.0554444440
 H  1.2068207908 -0.0378866246  1.0352817080
 H  1.1985356474  0.8744225784 -0.4835456612
 H  1.0111362596 -0.8564082414 -0.4981842163
 H -1.2277796580 -0.7978765658  0.5685924809
 H -1.1857749182  0.9660459895  0.4542656320
 H -1.0956742182 -0.0207435682 -1.0093342265
8
step 18
 C -0.7841289424  0.0445082830  0.0330651253
 C  0.7447484754  0.0409598196  0.0585420564
 H  1.1990634517 -0.0406628809  1.0423713798
 H  1.1823659469  0.8799171643 -0.4714440599
 H  1.0156721275 -0.8565456305 -0.4908324666
 H -1.2188592808 -0.7957410709  0.5688800300
 H -1.1926350548  0.9640929626  0.4449967867
 H -1.0922135879 -0.0181841827 -1.0103033126
8
step 19
 C -0.7871283213  0.0479005526  0.0344317469
 C  0.7460211823  0.0428323418  0.0615747786
 H  1.1904149428 -0.0428823589  1.0497693685
 H  1.1655596663  0.8859839450 -0.4589640937
 H  1.0215874779 -0.8565821433 -0.4832610707
 H -1.2093189342 -0.7935690341  0.5691968327
 H -1.1996586895  0.9619433280  0.4357846332
 H -1.0891519272 -0.0156153690 -1.0107508598
8
step 20
 C -0.7901539951  0.0514290319  0.0357254857
 C  0.7472981570  0.0444312161  0.0646008843
 H  1.1809719944 -0.0444102207  1.0574119316
 H  1.1488092130  0.8931982510 -0.4465708011
 H  1.0288107893 -0.8563320878 -0.4756006414
 H -1.1995730589 -0.7916526331  0.5697347926
 H -1.2070293051  0.9602387571  0.4270754592
 H -1.0865400469 -0.0131547880 -1.0106414902
8
step 21
 C -0.7931269647  0.0550386979  0.0368935294
 C  0.7484982611  0.0457263727  0.0676738681
 H  1.1708414542 -0.0451235519  1.0652390790
 H  1.1327520836  0.9020474448 -0.4346657130
 H  1.0372564144 -0.8556255711 -0.4679889654
 H -1.1900260854 -0.7902551842  0.5706693988
 H -1.2149132277  0.9595849483  0.4192913413
 H -1.0844363178 -0.0109192181 -1.0099899239
8
step 22
 C -0.7959768706  0.0586762789  0.0378963843
 C  0.7495511054  0.0467101138  0.0708365793
 H  1.1601386645 -0.0449173769  1.0731992110
 H  1.1179163771  0.9128243883 -0.4235239833
 H  1.0468284865 -0.8543192912 -0.4605685131
 H -1.1810464204 -0.7895677933  0.5721328100
 H -1.2234201696  0.9604614463  0.4127877642
 H -1.0829055563 -0.0090203271 -1.0088633198
8
step 23
 C -0.7986478763  0.0622944819  0.0387123751
 C  0.7504007749  0.0474043110  0.0741170204
 H  1.1489853768 -0.0437101061  1.0812518695
 H  1.1046856154  0.9255437059 -0.4132515364
 H  1.0574240453 -0.8523038818 -0.4534818180
 H -1.1729460020 -0.7896737370  0.5741918746
 H -1.2325664351  0.9631423590  0.4078179714
 H -1.0820166887 -0.0075600361 -1.0073768356
8
step 24
 C -0.8011026339  0.0658550214  0.0393395818
 C  0.7510071411  0.0478629421  0.0775269471
 H  1.1375071013 -0.0414479099  1.0893676946
 H  1.0932900624  0.9399065855 -0.4037749182
 H  1.0689348571 -0.8495064600 -0.4468647109
 H -1.1659679271 -0.7905277167  0.5768353769
 H -1.2422498100  0.9676466745  0.4045110182
 H -1.0818391521 -0.0066257016 -1.0056821265
8
step 25
 C -0.8033236483  0.0693297022  0.0397947093
 C  0.7513448972  0.0481689057  0.0810635560
 H  1.1258299093 -0.0381076854  1.0975253632
 H  1.0838231981  0.9553266710 -0.3948665736
 H  1.0812476222 -0.8458878827 -0.4408377846
 H -1.1602829113 -0.7919545483  0.5799731784
 H -1.2522435603  0.9737314494  0.4028677465
 H -1.0824380786 -0.0062854034 -1.0039494630
8
step 26
 C -0.8053119673  0.0726994267  0.0401090831
 C  0.7514011022  0.0484258355  0.0847135355
 H  1.1140768731 -0.0336985102  1.1057061245
 H  1.0762744553  0.9710097931 -0.3861967442
 H  1.0942425589 -0.8414353320 -0.4354968943
 H -1.1559935270 -0.7936676812  0.5834474072
 H -1.2622120759  0.9809296797  0.4027743966
 H -1.0838684895 -0.0065836774 -1.0023452922
8
step 27
 C -0.8070837480  0.0759516684  0.0403226219
 C  0.7511722337  0.0487470328  0.0884581556
 H  1.1023644909 -0.0282616890  1.1138872470
 H  1.0705667097  0.9860647907 -0.3773964277
 H  1.1077906923 -0.8361519312 -0.4309038645
 H -1.1531439016 -0.7953036849  0.5870533188
 H -1.2717446123  0.9886223850  0.4040293468
 H -1.0861689797 -0.0075380467 -1.0010081952
8
step 28
 C -0.8086656198  0.0790773243  0.0404770201
 C  0.7506615092  0.0492440179  0.0922781001
 H  1.0907995279 -0.0218696382  1.1220360188
 H  1.0665895505  0.9996188013 -0.3681164936
 H  1.1217504826 -0.8300458260 -0.4270787646
 H -1.1517321679 -0.7964660270  0.5905657787
 H -1.2803992486  0.9961271477  0.4063763117
 H -1.0893556358 -0.0091366685 -1.0000269867
8
step 29
 C -0.8100897731  0.0820678062  0.0406093660
 C  0.7498767969  0.0500166318  0.0961572257
 H  1.0794766655 -0.0146239020  1.1301058370
 H  1.0642241861  1.0109170253 -0.3580737716
 H  1.1359646545 -0.8231213449 -0.4239950467
 H -1.1517233231 -0.7967708215  0.5937669236
 H -1.2877482604  1.0027853898  0.4095376922
 H -1.0934170866 -0.0113373244 -0.9994248216
8
step 30
 C -0.8113894393  0.0849128872  0.0407471227
 C  0.7488290747  0.0511456634  0.1000849966
 H  1.0684771872 -0.0066525619  1.1380354604
 H  1.0633599363  1.0193976188 -0.3470814239
 H  1.1502581812 -0.8153744181 -0.4215785073
 H -1.1530608979 -0.7958884542  0.5964712743
 H -1.2934181410  1.0080361106  0.4132437861
 H -1.0983115602 -0.0140678839 -0.9991524177
8
step 31
 C -0.8125950994  0.0875994410  0.0409049576
 C  0.7475312203  0.0526881504  0.1040577251
 H  1.0578687203  0.0018927886  1.1457518520
 H  1.0639043375  1.0247410182 -0.3350652186
 H  1.1644382975 -0.8067935113 -0.4197105059
 H -1.1556766108 -0.7935771221  0.5985458413
 H -1.2971207167  1.0114706801  0.4172559105
 H -1.1039665880 -0.0172282716 -0.9990919777
8
step 32
 C -0.8137315045  0.0901109546  0.0410835030
 C  0.7459969211  0.0546750540  0.1080788987
 H  1.0477058545  0.0108404455  1.1531763696
 H  1.0657891278  1.0268970526 -0.3220687752
 H  1.1782971621 -0.7973661689 -0.4182352906
 H -1.1594977420 -0.7897063547  0.5999240041
 H -1.2986745219  1.0128684815  0.4213832217
 H -1.1102816050 -0.0206938915 -0.9990714826
8
step 33
 C -0.8148154987  0.0924276101  0.0412698493
 C  0.7442395997  0.0571109383  0.1121588303
 H  1.0380313417  0.0200024179  1.1602335013
 H  1.0689735493  1.0260929869 -0.3082502214
 H  1.1916174003 -0.7870901476 -0.4169707539
 H -1.1644522423 -0.7842699068  0.6006127855
 H -1.2980169970  1.0122155105  0.4254937967
 H -1.1171332579 -0.0243203762 -0.9988872657
8
step 34
 C -0.8158546572  0.0945267724  0.0414394573
 C  0.7422714064  0.0599754668  0.1163137444
 H  1.0288775466  0.0291787823  1.1668609505
 H  1.0734450943  1.0228228394 -0.2938710950
 H  1.2041802981 -0.7759872869 -0.4157215651
 H -1.1704716341 -0.7773879286  0.6006934969
 H -1.2952081768  1.0097078346  0.4295204722
 H -1.1243828535 -0.0279494481 -0.9983315919
8
step 35
 C -0.8168468556  0.0963838298  0.0415591925
 C  0.7401024897  0.0632268016  0.1205642754
 H  1.0202678624  0.0381626755  1.1730196643
 H  1.0792163899  1.0178149135 -0.2792767619
 H  1.2157759839 -0.7641178277 -0.4142934238
 H -1.1774916481 -0.7692983252  0.6003157725
 H -1.2904258473  1.0057401539  0.4334613063
 H -1.1318851291 -0.0314155909 -0.9972215367
8
step 36
 C -0.8177809668  0.0979734636  0.0415912757
 C  0.7377408840  0.0668071652  0.1249332844
 H  1.0122178823  0.0467459752  1.1787023562
 H  1.0863157179  1.0119725524 -0.2648669106
 H  1.2262145725 -0.7515928307 -0.4125071199
 H -1.1854503809 -0.7603372059  0.5996849863
 H -1.2839513502  1.0008778241  0.4373737243
 H -1.1394974188 -0.0345531549 -0.9954256914
8
step 37
 C -0.8186388954  0.0992715140  0.0414980185
 C  0.7351933916  0.0706507097  0.1294429519
 H  1.0047361968  0.0547256047  1.1839391670
 H  1.0947682986  1.0062848005 -0.2510555404
 H  1.2353370096 -0.7385825758 -0.4102111346
 H -1.1942836962 -0.7509087638  0.5990432585
 H -1.2761450222  0.9958098263  0.4413608736
 H -1.1470882793 -0.0372034693 -0.9928858201
8
step 38
 C -0.8193990207  0.1002576044  0.0412471876
 C  0.7324677010  0.0746932921  0.1341113140
 H  0.9978247497  0.0619102735  1.1887993285
 H  1.1045668485  1.0017104323 -0.2382226478
 H  1.2430242571 -0.7253192345 -0.4072916210
 H -1.2039177615 -0.7414461256  0.5986448937
 H -1.2674112716  0.9912814306  0.4455489941
 H -1.1545446926 -0.0392215032 -0.9896312972
8
step 39
 C -0.8200408233  0.1009185185  0.0408176632
 C  0.7295756266  0.0788828325  0.1389487399
 H  0.9914787227  0.0681273531  1.1933880580
 H  1.1156337024  0.9990500348 -0.2266640276
 H  1.2492035244 -0.7120926265 -0.4036787688
 H -1.2142591276 -0.7323666052  0.5987281547
 H -1.2581557688  0.9880094009  0.4500561950
 H -1.1617770366 -0.0404816164 -0.9857847428
8
step 40
 C -0.8205500594  0.1012519865  0.0402047330
 C  0.7265368239  0.0831880282  0.1439551455
 H  0.9856859453  0.0732295215  1.1978384294
 H  1.1277823054  0.9988319433 -0.2165493726
 H  1.2538504893 -0.6992385084 -0.3993487926
 H -1.2251836115 -0.7240268791  0.5994865401
 H -1.2487406550  0.9865890859  0.4549559858
 H -1.1687211163 -0.0408819657 -0.9815577354
8
step 41
 C -0.8209234856  0.1012701314  0.0394240215
 C  0.7233818949  0.0876029611  0.1491187844
 H  0.9804258679  0.0771007746  1.2022986511
 H  1.1406902901  1.0012413388 -0.2078994336
 H  1.2569868731 -0.6871196340 -0.3943211361
 H -1.2365262133 -0.7166849886  0.6010437061
 H -1.2394465319  0.9874093584  0.4602424061
 H -1.1753366967 -0.0403472049 -0.9772359278
8
step 42
 C -0.8211720439  0.1010015857  0.0385129177
 C  0.7201537646  0.0921460257  0.1544170927
 H  0.9756682146  0.0796613989  1.2069159641
 H  1.1538959427  1.0061123203 -0.2005887254
 H  1.2586733185 -0.6761008019 -0.3886509835
 H -1.2480749333 -0.7104758684  0.6034363234
 H -1.2304502737  0.9905942899  0.4658057731
 H -1.1816022414 -0.0388292575 -0.9731536000
8
step 43
 C -0.8213217189  0.1004914636  0.0375286492
 C  0.7169067248  0.0968533654  0.1598194290
 H  0.9713715411  0.0808715406  1.2118191081
 H  1.1668232262  1.0129830147 -0.1943725349
 H  1.2589982371 -0.6665201614 -0.3824178076
 H -1.2595711947 -0.7054048836  0.6066081390
 H -1.2218242010  0.9959864510  0.4714269840
 H -1.1875059936 -0.0363061904 -0.9696589209
8
step 44
 C -0.8214119032  0.0997989663  0.0365428882
 C  0.7137033328  0.1017687132  0.1652909635
 H  0.9674820550  0.0807331227  1.2171017859
 H  1.1788308234  1.0211943779 -0.1889298952
 H  1.2580640641 -0.6586599330 -0.3757114056
 H -1.2707183959 -0.7013601283  0.6104164436
 H -1.2135559020  1.0031761079  0.4767935415
 H -1.1930342098 -0.0327795832 -0.9670730224
8
step 45
 C -0.8214917514  0.0989931480  0.0356337095
 C  0.7106099545  0.1069322886  0.1707967513
 H  0.9639331418  0.0792900645  1.2228096096
 H  1.1892734776  1.0300045005 -0.1839113358
 H  1.2559730417 -0.6527201232 -0.3686175046
 H -1.2811982577 -0.6981402649  0.6146496680
 H -1.2055820066  1.0115679563  0.4815340159
 H -1.1981581820 -0.0282711806 -0.9656480574
8
step 46
 C -0.8216153697  0.0981478670  0.0348764447
 C  0.7076918705  0.1123710321  0.1763052161
 H  0.9606460410  0.0766269833  1.2289325779
 H  1.1975626418  1.0386940673 -0.1789821014
 H  1.2528150216 -0.6487985759 -0.3612053501
 H -1.2906927922 -0.6954918971  0.6190527944
 H -1.1978264072  1.0204684589  0.4852627427
 H -1.2028224561 -0.0228198835 -0.9655309327
8
step 47
 C -0.8218366786  0.0973369697  0.0343351760
 C  0.7050085956  0.1180914656  0.1817906596
 H  0.9575319944  0.0728667071  1.2354043156
 H  1.2032171967  1.0466494323 -0.1738558569
 H  1.2486596309 -0.6468798601 -0.3535195203
 H -1.2989086362 -0.6931496637  0.6233563004
 H -1.1902345306  1.0291755356  0.4876252965
 H -1.2069369616 -0.0164800708 -0.9667394724
8
step 48
 C -0.8222045401  0.0966304004  0.0340562705
 C  0.7026096977  0.1240754884  0.1872347797
 H  0.9544959614  0.0681669265  1.2421082843
 H  1.2059003572  1.0534203350 -0.1683179583
 H  1.2435544043 -0.6468342427 -0.3455774939
 H -1.3056004172 -0.6908732576  0.6273045448
 H -1.1827987423  1.0370570157  0.4883373895
 H -1.2103753237 -0.0093218033 -0.9691559395
8
step 49
 C -0.8227584727  0.0960914483  0.0340646857
 C  0.7005311692  0.1302788219  0.1926273802
 H  0.9514417185  0.0627161775  1.2488902039
 H  1.2054429302  1.0587555263 -0.1622397132
 H  1.2375292854 -0.6484266704 -0.3373733865
 H -1.3105905204 -0.6884775419  0.6306804784
 H -1.1755735827  1.0436110836  0.4872134120
 H -1.2129803812 -0.0014327661 -0.9725394728
8
step 50
 C -0.8235251276  0.0957749776  0.0343630957
 C  0.6987923841  0.1366316375  0.1979664892
 H  0.9482779060  0.0567291621  1.2555751681
 H  1.2018546703  1.0626210633 -0.1555855622
 H  1.2306065906 -0.6513345308 -0.3288870834
 H -1.3137835905 -0.6858539050  0.6333247309
 H -1.1686818815  1.0485075295  0.4841839162
 H -1.2145762922  0.0070788442 -0.9765552211
8
step 51
 C -0.8245156798  0.0957263294  0.0349334164
 C  0.6973938078  0.1430410229  0.2032580194
 H  0.9449244057  0.0504412661  1.2619875197
 H  1.1953249233  1.0652041592 -0.1484143407
 H  1.2228144809 -0.6551721866 -0.3200970595
 H -1.3151748864 -0.6829823319  0.6351480368
 H -1.1623136005  1.0516114315  0.4793030020
 H -1.2149851563  0.0160816233 -0.9808150341
8
step 52
 C -0.8257243287  0.0959806309  0.0357401305
 C  0.6963158054  0.1493952077  0.2085149734
 H  0.9413183682  0.0441020981  1.2679714386
 H  1.1862120364  1.0669019690 -0.1408744006
 H  1.2142014717 -0.6595199038 -0.3109947022
 H -1.3148520302 -0.6799342473  0.6361364461
 H -1.1567190097  1.0529910922  0.4727468159
 H -1.2140452987  0.0254195444 -0.9849232990
8
step 53
 C -0.8271281319  0.0965624148  0.0367348790
 C  0.6955190111  0.1555697357  0.2137560749
 H  0.9374192496  0.0379679608  1.2734103213
 H  1.1750193416  1.0682911477 -0.1331910069
 H  1.2048495749 -0.6639547536 -0.3015979659
 H -1.3129898460 -0.6768662181  0.6363489126
 H -1.1521970892  1.0529106351  0.4648037845
 H -1.2116283941  0.0349125587 -0.9885218544
8
step 54
 C -0.8286883650  0.0974856555  0.0378619483
 C  0.6949466853  0.1614358909  0.2190036465
 H  0.9332123455  0.0322933492  1.2782432424
 H  1.1623551329  1.0700721468 -0.1256437555
 H  1.1948841705 -0.6680812028 -0.2919625442
 H -1.3098381176 -0.6740045146  0.6359069420
 H -1.1490793896  1.0518058468  0.4558564649
 H -1.2076532175  0.0443594990 -0.9913292402
8
step 55
 C -0.8303534916  0.0987544858  0.0390644088
 C  0.6945292104  0.1668714794  0.2242806292
 H  0.9287104966  0.0273218260  1.2824769810
 H  1.1488761255  1.0729840415 -0.1185325468
 H  1.1844794164 -0.6715592407 -0.2821892549
 H -1.3057024850 -0.6716207409  0.6349763477
 H -1.1477092510  1.0502408604  0.4463546350
 H -1.2020946648  0.0535431722 -0.9931710742
8
step 56
 C -0.8320636411  0.1003648809  0.0402906293
 C  0.6941903632  0.1717734150  0.2296068845
 H  0.9239538355  0.0232768703  1.2861922089
 H  1.1352188559  1.0776928905 -0.1121335208
 H  1.1738586820 -0.6741279249 -0.2724268111
 H -1.3009195121 -0.6699995760  0.6337420418
 H -1.1484164619  1.0488442777  0.4367799080
 H -1.1949874655  0.0622372701 -0.9939995214
8
step 57
 C -0.8337562549  0.1023074163  0.0415006833
 C  0.6938543638  0.1760704991  0.2349953280
 H  0.9190076184  0.0203534892  1.2895424987
 H  1.1219300906  1.0846687422 -0.1066510273
 H  1.1632899786 -0.6756221622 -0.2628694932
 H -1.2958281305 -0.6694011719  0.6323782105
 H -1.1514882083  1.0482271089  0.4276038962
 H -1.1864245760  0.0702146080 -0.9939004573
8
step 58
 C -0.8353723091  0.1045708324  0.0426718352
 C  0.6934522667  0.1797337679  0.2404488325
 H  0.9139583026  0.0187114323  1.2927449792
 H  1.1094120153  1.0940786536 -0.1021762684
 H  1.1530765976 -0.6759805059 -0.2537494358
 H -1.2907408586 -0.6700226113  0.6310178566
 H -1.1571384766  1.0488912295  0.4192443920
 H -1.1765505757  0.0772561769 -0.9930871529
8
step 59
 C -0.8368623267  0.1071456646  0.0438020327
 C  0.6929263593  0.1827815065  0.2459589387
 H  0.9089081042  0.0184707226  1.2960619592
 H  1.0978965682  1.1057271085 -0.0986645004
 H  1.1435432463 -0.6752419711 -0.2453234032
 H -1.2859188969 -0.6719643356  0.6297269037
 H -1.1654796188  1.0511438984  0.4120262038
 H -1.1655506159  0.0831605106 -0.9918795106
8
step 60
 C -0.8381913284  0.1100268995  0.0449103420
 C  0.6922319770  0.1852770448  0.2515070032
 H  0.9039683321  0.0197098848  1.2997738920
 H  1.0874545256  1.1190648019 -0.0959383995
 H  1.1350180837 -0.6735306282 -0.2378542108
 H -1.2815549194 -0.6752077372  0.6284880987
 H -1.1765009023  1.0550375093  0.4061538369
 H -1.1536357451  0.0877528729 -0.9906685619
8
step 61
 C -0.8393419986  0.1132147267  0.0460337126
 C  0.6913371329  0.1873194953  0.2570676239
 H  0.8992519077  0.0224667768  1.3041456918
 H  1.0780330113  1.1332648656 -0.0937167268
 H  1.1278114079 -0.6710282379 -0.2315875450
 H -1.2777660011 -0.6796086181  0.6271984130
 H -1.1900587231  1.0603506344  0.4017012371
 H -1.1410258962  0.0908937756 -0.9898676069
8
step 62
 C -0.8403156516  0.1167130271  0.0472202805
 C  0.6902210080  0.1890296336  0.2626134102
 H  0.8948656535  0.0267414233  1.3093903503
 H  1.0695069036  1.1473441996 -0.0916594453
 H  1.1221924098 -0.6679374323 -0.2267258850
 H -1.2745969827 -0.6849081180  0.6256807987
 H -1.2058813095  1.0666162131  0.3986197244
 H -1.1279324728  0.0924863734 -0.9898541597
8
step 63
 C -0.8411309816  0.1205260082  0.0485203562
 C  0.6888723347  0.1905341612  0.2681198355
 H  0.8909031091  0.0324998700  1.3156354180
 H  1.0617290737  1.1602981589 -0.0894172010
 H  1.1183662368 -0.6644405334 -0.2234023739
 H -1.2720324510 -0.6907590409  0.6237079519
 H -1.2235876555  1.0731896255  0.3967607802
 H -1.1145430746  0.0924824234 -0.9909102466
8
step 64
 C -0.8418209369  0.1246539442  0.0499768963
 C  0.6872881914  0.1919513570  0.2735690971
 H  0.8874386915  0.0396779655  1.3228984607
 H  1.0545698102  1.1712215833 -0.0866751806
 H  1.1164542705 -0.6606612162 -0.2216584158
 H -1.2700141157 -0.6967625951  0.6210333500
 H -1.2427173782  1.0793396674  0.3959074788
 H -1.1010110556  0.0908866872 -0.9931712761
8
step 65
 C -0.8424282752  0.1290890843  0.0516173786
 C  0.6854731623  0.1933801010  0.2789524270
 H  0.8845238774  0.0481842142  1.3310765872
 H  1.0479425430  1.1794015172 -0.0831861703
 H  1.1164806411 -0.6566368278 -0.2214290136
 H -1.2684600443 -0.7025093405  0.6174239938
 H -1.2627664839  1.0843430392  0.3958079836
 H -1.0874519298  0.0877597688 -0.9965940455
8
step 66
 C -0.8430004223  0.1338125080  0.0534485438
 C  0.6834384971  0.1948930702  0.2842708272
 H  0.8821857575  0.0579013543  1.3399526495
 H  1.0418176131  1.1843787367 -0.0787920557
 H  1.1183673659 -0.6523075840 -0.2225390503
 H -1.2672828066 -0.7076186767  0.6126899779
 H -1.2832240981  1.0875671877  0.3962061052
 H -1.0739471383  0.0832192772 -1.0009515172
8
step 67
 C -0.8435842205  0.1387922973  0.0554546495
 C  0.6812009076  0.1965339807  0.2895345586
 H  0.8804279100  0.0686869175  1.3492174727
 H  1.0362274794  1.1859819024 -0.0734354203
 H  1.1219391908 -0.6475252565 -0.2247119258
 H -1.2664046058 -0.7117728328  0.6067076170
 H -1.3036065324  1.0885334380  0.3968662115
 H -1.0605538427  0.0774389360 -1.0058563194
8
step 68
 C -0.8442210579  0.1439830588  0.0575990326
 C  0.6787808511  0.1983182318  0.2947618199
 H  0.8792331969  0.0803734783  1.3585045094
 H  1.0312662331  1.1843394066 -0.0671632624
 H  1.1269375988 -0.6420795163 -0.2275896758
 H -1.2657684800 -0.7147431225  0.5994345854
 H -1.3234866966  1.0869585917  0.3975917182
 H -1.0473179799  0.0706450561 -1.0108085402
8
step 69
 C -0.8449427713  0.1493266440  0.0598281760
 C  0.6762004241  0.2002361852  0.2999769679
 H  0.8785678969  0.0927694612  1.3674314904
 H  1.0270847522  1.1798715757 -0.0601238775
 H  1.1330420337 -0.6357364084 -0.2307616826
 H -1.2653453520 -0.7164075618  0.5909168522
 H -1.3425180261  1.0827766987  0.3982375070
 H -1.0342873624  0.0631098704 -1.0152587085
8
step 70
 C -0.8457686173  0.1547538580  0.0620772633
 C  0.6734812205  0.2022585081  0.3052084367
 H  0.8783865540  0.1056612358  1.3756432572
 H  1.0238810997  1.1732620598 -0.0525564735
 H  1.1398955460 -0.6282816576 -0.2337979436
 H -1.2651370545 -0.7167595838  0.5812879326
 H -1.3604524586  1.0761435481  0.3987169203
 H -1.0215221690  0.0551416160 -1.0186753189
8
step 71
 C -0.8467035432  0.1601869694  0.0642763277
 C  0.6706426404  0.2043433240  0.3104863272
 H  0.8786369916  0.1188169203  1.3828507172
 H  1.0218844166  1.1654041536 -0.0447718802
 H  1.1471319195 -0.6195618112 -0.2362827743
 H -1.2651755472 -0.7159076640  0.5707612591
 H -1.3771516100  1.0674255346  0.3990037308
 H -1.0091013273  0.0470717790 -1.0206076687
8
step 72
 C -0.8477379562  0.1655428811  0.0663563962
 C  0.6677011403  0.2064451154  0.3158395505
 H  0.8792650316  0.1319919654  1.3888621718
 H  1.0213300894  1.1573175679 -0.0371225313
 H  1.1544017076 -0.6095179031 -0.2378455260
 H -1.2655185163 -0.7140655449  0.5596165262
 H -1.3925894847  1.0571731364  0.3991289958
 H -0.9971244808  0.0392403631 -1.0207377622
8
step 73
 C -0.8488491687  0.1707368687  0.0682553179
 C  0.6646707676  0.2085251339  0.3212925004
 H  0.8802185235  0.1449363122  1.3936045590
 H  1.0224250464  1.1500357692 -0.0299614721
 H  1.1613951834 -0.5982083973 -0.2381859099
 H -1.2662415685 -0.7115327928  0.5481809378
 H -1.4068443195  1.0460783446  0.3991723061
 H -0.9857100852  0.0319802860 -1.0189180717
8
step 74
 C -0.8500046209  0.1756867832  0.0699231200
 C  0.6615649965  0.2105623895  0.3268615068
 H  0.8814503018  0.1574027393  1.3971331198
 H  1.0253051417  1.1444739503 -0.0235937473
 H  1.1678607312 -0.5858198717 -0.2370924173
 H -1.2674273818 -0.7086659545  0.5368065159
 H -1.4200771603  1.0349158787  0.3992469552
 H -0.9749905865  0.0256020844 -1.0151939856
8
step 75
 C -0.8511668005  0.1803175283  0.0713267080
 C  0.6583994255  0.2125633302  0.3325517131
 H  0.8829196728  0.1691558993  1.3996286378
 H  1.0299913245  1.1413002051 -0.0182282434
 H  1.1736175180 -0.5726649791 -0.2344529014
 H -1.2691525265 -0.7058417651  0.5258450413
 H -1.4324962060  1.0244704169  0.3994792695
 H -0.9651056925  0.0203801010 -1.0098105276
8
step 76
 C -0.8522994359  0.1845654346  0.0724535317
 C  0.6551944942  0.2145676857  0.3383552877
 H  0.8845920255  0.1799814627  1.4013819332
 H  1.0363555777  1.1408406029 -0.0139414229
 H  1.1785614131 -0.5591678161 -0.2302566447
 H -1.2714731970 -0.7034155637  0.5156226913
 H -1.4443091980  1.0154562141  0.3999838399
 H -0.9561946135  0.0165413320 -1.0032026147
8
step 77
 C -0.8533741088  0.1883819383  0.0733135806
 C  0.6519772782  0.2166483240  0.3442517642
 H  0.8864362322  0.1896946726  1.4027660478
 H  1.0441082287  1.1430449324 -0.0106634304
 H  1.1826631953 -0.5458373080 -0.2245873796
 H -1.2744116644 -0.7016798802  0.5064168180
 H -1.4556706657  1.0084401087  0.4008383547
 H -0.9483879772  0.0142581524 -0.9959673741
8
step 78
 C -0.8543760641  0.1917358496  0.0739389089
 C  0.6487817963  0.2189045106  0.3502107334
 H  0.8884197139  0.1981475266  1.4041977823
 H  1.0528132318  1.1475224050 -0.0081909069
 H  1.1859583445 -0.5332299533 -0.2176070495
 H -1.2779456587 -0.7008293540  0.4984373795
 H -1.4666348822  1.0037817161  0.4020632812
 H -0.9417999914  0.0136460736 -0.9888167588
8
step 79
 C -0.8553079387  0.1946136375  0.0743800240
 C  0.6456479218  0.2214499591  0.3561963220
 H  0.8905014472  0.2052338432  1.4060919580
 H  1.0619292082  1.1536339510 -0.0062222981
 H  1.1885284279 -0.5219044209 -0.2095309034
 H -1.2820028273 -0.7009379997  0.4918151353
 H -1.4771264242  1.0016031511  0.4036116597
 H -0.9365213570  0.0147673015 -0.9825099362
8
step 80
 C -0.8561905114  0.1970176061  0.0746990102
 C  0.6426195158  0.2243984323  0.3621723298
 H  0.8926237568  0.2108917651  1.4088136204
 H  1.0708662385  1.1606125437 -0.0044052381
 H  1.1904754252 -0.5123719291 -0.2005959403
 H -1.2864617534 -0.7019529978  0.4865978433
 H -1.4869366521  1.0017942813  0.4053721724
 H -0.9326133791  0.0176398783 -0.9777684696
8
step 81