6
step 0
 C  3.4184732309  0.7732281452 -9.2478909243
 C  4.6807924886  0.7907411109 -8.9135253087
 H  2.9085976504 -0.1397359400 -9.5256067410
 H  2.8145828089  1.6707850330 -9.2655943346
 H  5.2847645353 -0.1067684741 -8.8962028520
 H  5.1907893948  1.7037501461 -8.6361800834
6
step 1
 C  3.4196733478  0.7716320265 -9.2479634794
 C  4.6790836628  0.7943749671 -8.9094986064
 H  2.9168560686 -0.1413475133 -9.5259394133
 H  2.8252970262  1.6586881578 -9.2589536527
 H  5.2751661639 -0.1011230632 -8.9018451502
 H  5.1819238395  1.7097754460 -8.6407999419
6
step 2
 C  3.4209307689  0.7699699828 -9.2480205812
 C  4.6773533233  0.7979963359 -8.9055200151
 H  2.9248629232 -0.1432013533 -9.5263579166
 H  2.8349086312  1.6479451351 -9.2524572517
 H  5.2662038871 -0.0959634798 -8.9073248880
 H  5.1733782561  1.7159957311 -8.6451835381
6
step 3
 C  3.4223000324  0.7681742963 -9.2480490638
 C  4.6755790974  0.8016090855 -8.9016142058
 H  2.9324300041 -0.1455155220 -9.5269430276
 H  2.8424463216  1.6397394626 -9.2462005620
 H  5.2584116335 -0.0916804133 -8.9125230392
 H  5.1653954466  1.7225950880 -8.6491404318
6
step 4
 C  3.4238120772  0.7661985695 -9.2480394338
 C  4.6737538980  0.8052128107 -8.8978011645
 H  2.9394030974 -0.1484552824 -9.5277596322
 H  2.8471568369  1.6349385474 -9.2402618690
 H  5.2522216055 -0.0885342990 -8.9173331298
 H  5.1581666836  1.7296886587 -8.6525105232
6
step 5
 C  3.4254626783  0.7640308597 -9.2479863080
 C  4.6718906815  0.8088008418 -8.8940955085
 H  2.9456724469 -0.1521138648 -9.5288502960
 H  2.8486269017  1.6339136395 -9.2347080450
 H  5.2479268736 -0.0866037120 -8.9216582531
 H  5.1518178115  1.7372990829 -8.6551706544
6
step 6
 C  3.4272072820  0.7616997069 -9.2478881845
 C  4.6700239735  0.8123594837 -8.8905065637
 H  2.9511791028 -0.1565004173 -9.5302308792
 H  2.8468444661  1.6364520754 -9.2296031966
 H  5.2456630545 -0.0857626538 -8.9254071401
 H  5.1464034346  1.7453463503 -8.6570368373
6
step 7
 C  3.4289643006  0.7592701722 -9.2477468135
 C  4.6682077227  0.8158688287 -8.8870390625
 H  2.9559168457 -0.1615364308 -9.5318886685
 H  2.8421769491  1.6417975891 -9.2250156909
 H  5.2454119541 -0.0856928624 -8.9284912100
 H  5.1419095693  1.7536532129 -8.6580622526
6
step 8
 C  3.4306259502  0.7568312881 -9.2475664195
 C  4.6665098350  0.8193049735 -8.8836942448
 H  2.9599295095 -0.1670614677 -9.5337833628
 H  2.8352766948  1.6488031073 -9.2210199454
 H  5.2470248425 -0.0859281213 -8.9308240224
 H  5.1382636480  1.7619651872 -8.6582318692
6
step 9
 C  3.4320733313  0.7544797022 -9.2473528668
 C  4.6650044106  0.8226430229 -8.8804711369
 H  2.9633037877 -0.1728481953 -9.5358510434
 H  2.8269492091  1.6561395157 -9.2176924509
 H  5.2502590540 -0.0859197569 -8.9323235418
 H  5.1353497018  1.7699814079 -8.6575549265
6
step 10
 C  3.4331919277  0.7523046872 -9.2471127228
 C  4.6637630352  0.8258601051 -8.8773678441
 H  2.9661581390 -0.1786253774 -9.5380108225
 H  2.8180233646  1.6624978103 -9.2151043215
 H  5.2548201277 -0.0851092694 -8.9329165536
 H  5.1330261282  1.7773910458 -8.6560565678
6
step 11
 C  3.4338847975  0.7503776206 -9.2468521769
 C  4.6628464431  0.8289377908 -8.8743827510
 H  2.9686290384 -0.1841060743 -9.5401733763
 H  2.8092486160  1.6667449841 -9.2133134460
 H  5.2604025798 -0.0829956055 -8.9325439739
 H  5.1311435207  1.7839097883 -8.6537697332
6
step 12
 C  3.4340822858  0.7487464549 -9.2465758829
 C  4.6622975659  0.8318636409 -8.8715155504
 H  2.9708562878 -0.1890174774 -9.5422502645
 H  2.8012261848  1.6680234030 -9.2123583327
 H  5.2667246494 -0.0791890166 -8.9311658380
 H  5.1295604795  1.7893118156 -8.6507281267
6
step 13
 C  3.4337482204  0.7474340386 -9.2462858912
 C  4.6621365868  0.8346319264 -8.8687680195
 H  2.9729692030 -0.1931288542 -9.5441629086
 H  2.7943691452  1.6658028681 -9.2122543343
 H  5.2735547843 -0.0734482335 -8.9287651396
 H  5.1281559628  1.7934542226 -8.6469607580
6
step 14
 C  3.4328830636  0.7464386832 -9.2459808610
 C  4.6623582794  0.8372437334 -8.8661444700
 H  2.9750751929 -0.1962748366 -9.5458502937
 H  2.7888823008  1.6599007673 -9.2129920305
 H  5.2807293438 -0.0657009720 -8.9253501166
 H  5.1268373787  1.7962923091 -8.6424882978
6
step 15
 C  3.4315245292  0.7457357136 -9.2456556860
 C  4.6629316766  0.8397066831 -8.8636518118
 H  2.9772517343 -0.1983722922 -9.5472747664
 H  2.7847543011  1.6504828009 -9.2145372973
 H  5.2881617142 -0.0560490450 -8.9209548624
 H  5.1255441008  1.7978851547 -8.6373213253
6
step 16
 C  3.4297459559  0.7452794470 -9.2453015810
 C  4.6638019987  0.8420344027 -8.8612992111
 H  2.9795422144 -0.1994298592 -9.5484255742
 H  2.7817587897  1.6380496374 -9.2168327976
 H  5.2958429183 -0.0447590813 -8.9156382445
 H  5.1242464116  1.7983914101 -8.6314604738
6
step 17
 C  3.4276523990  0.7450057956 -9.2449065907
 C  4.6648947082  0.8442457465 -8.8590973586
 H  2.9819556974 -0.1995497044 -9.5493199568
 H  2.7794666474  1.6234068795 -9.2198009547
 H  5.3038333242 -0.0322390684 -8.9094811595
 H  5.1229401298  1.7980555264 -8.6248984790
6
step 18
 C  3.4253740931  0.7448362836 -9.2444564224
 C  4.6661214907  0.8463636762 -8.8570574044
 H  2.9844703982 -0.1989212952 -9.5500017017
 H  2.7772762097  1.6076092603 -9.2233486311
 H  5.3122447711 -0.0190006401 -8.9025822616
 H  5.1216374386  1.7971850371 -8.6176241119
6
step 19
 C  3.4230568127  0.7446845024 -9.2439354943
 C  4.6673878234  0.8484136940 -8.8551896453
 H  2.9870404350 -0.1978071695 -9.5505371643
 H  2.7744709250  1.5918676826 -9.2273734795
 H  5.3212128705 -0.0056080403 -8.8950525434
 H  5.1203547883  1.7961202544 -8.6096278791
6
step 20
 C  3.4208489393  0.7444656160 -9.2433281266
 C  4.6686015513  0.8504218385 -8.8535020760
 H  2.9896052639 -0.1965209954 -9.5510088556
 H  2.7703115471  1.5774129297 -9.2317711834
 H  5.3308608177  0.0073826629 -8.8870095087
 H  5.1190992489  1.7951989301 -8.6009091773
6
step 21
 C  3.4188859529  0.7441082848 -9.2426198735
 C  4.6696815824  0.8524124515 -8.8519989299
 H  2.9921010317 -0.1953987832 -9.5515068692
 H  2.7641598450  1.5653250158 -9.2364417994
 H  5.3412586913  0.0194868892 -8.8785719847
 H  5.1178552156  1.7947198146 -8.5914842776
6
step 22
 C  3.4172745261  0.7435665568 -9.2417990324
 C  4.6705655412  0.8544061348 -8.8506793513
 H  2.9944729089 -0.1947649908 -9.5521186712
 H  2.7556135568  1.5563592770 -9.2412929032
 H  5.3523851111  0.0303470864 -8.8698566278
 H  5.1165737175  1.7949100905 -8.5813941420
6
step 23
 C  3.4160797245  0.7428278994 -9.2408582989
 C  4.6712151576  0.8564183962 -8.8495363575
 H  2.9966872350 -0.1948964779 -9.5529181328
 H  2.7446158843  1.5508174058 -9.2462380957
 H  5.3640998135  0.0397696709 -8.8609767100
 H  5.1151665105  1.7959017785 -8.5707107485
6
step 24
 C  3.4153188712  0.7419139774 -9.2397963500
 C  4.6716184314  0.8584593490 -8.8485562603
 H  2.9987420282 -0.1959886280 -9.5539550969
 H  2.7315007721  1.5485076074 -9.2511916846
 H  5.3761347815  0.0477357191 -8.8520429330
 H  5.1135065313  1.7977210903 -8.5595405026
6
step 25
 C  3.4149638329  0.7408733956 -9.2386189686
 C  4.6717881959  0.8605345036 -8.8477186927
 H  3.0006741497 -0.1981290210 -9.5552471000
 H  2.7169549958  1.5488080416 -9.2560625987
 H  5.3881076498  0.0543839635 -8.8431652087
 H  5.1114351781  1.8002924440 -8.5480236256
6
step 26
 C  3.4149506527  0.7397689493 -9.2373393151
 C  4.6717574374  0.8626463348 -8.8469973217
 H  3.0025614594 -0.2012839722 -9.5567749241
 H  2.7019100315  1.5508082754 -9.2607510023
 H  5.3995554972  0.0599714085 -8.8344540157
 H  5.1087755144  1.8034560759 -8.5363290811
6
step 27
 C  3.4151933343  0.7386637581 -9.2359771700
 C  4.6715723364  0.8647961073 -8.8463612210
 H  3.0045189306 -0.2053014222 -9.5584831974
 H  2.6874000938  1.5534800538 -9.2651493741
 H  5.4099822652  0.0648213485 -8.8260202408
 H  5.1053493228  1.8069957902 -8.5246454077
6
step 28
 C  3.4155982443  0.7376100927 -9.2345572631
 C  4.6712842869  0.8669854646 -8.8457767581
 H  3.0066888283 -0.2099303316 -9.5602862852
 H  2.6744250217  1.5558322435 -9.2691474853
 H  5.4189108076  0.0692693319 -8.8179731224
 H  5.1009953788  1.8106720078 -8.5131686135
6
step 29
 C  3.4160766741  0.7366426783 -9.2331070237
 C  4.6709420976  0.8692174841 -8.8452097617
 H  3.0092263042 -0.2148531717 -9.5620785665
 H  2.6638424548  1.5570254231 -9.2726393799
 H  5.4259313061  0.0736153238 -8.8104166149
 H  5.0955864186  1.8142551153 -8.5020887749
6
step 30
 C  3.4165545288  0.7357762781 -9.2316541438
 C  4.6705852901  0.8714971371 -8.8446277060
 H  3.0122826439 -0.2197257386 -9.5637473657
 H  2.6562960326  1.5564427574 -9.2755304918
 H  5.4307404406  0.0780867325 -8.8034448873
 H  5.0890428581  1.8175549534 -8.4915770252
6
step 31
 C  3.4169791187  0.7350062778 -9.2302242916
 C  4.6702390642  0.8738312572 -8.8440016699
 H  3.0159886262 -0.2242180141 -9.5651865359
 H  2.6521744933  1.5537260818 -9.2777437847
 H  5.4331686898  0.0828137794 -8.7971377224
 H  5.0813421109  1.8204436216 -8.4817743210
6
step 32
 C  3.4173234371  0.7343108371 -9.2288392062
 C  4.6699112122  0.8762281881 -8.8433078869
 H  3.0204400612 -0.2280508937 -9.5663089450
 H  2.6515925893  1.5487890137 -9.2792245430
 H  5.4331952460  0.0878168286 -8.7915564401
 H  5.0725230633  1.8228700836 -8.4727829573
6
step 33
 C  3.4175882797  0.7336535779 -9.2275153070
 C  4.6695910992  0.8786972517 -8.8425287513
 H  3.0256868670 -0.2310254159 -9.5670566445
 H  2.6543865337  1.5418158344 -9.2799437996
 H  5.4309508511  0.0930048337 -8.7867407960
 H  5.0626857270  1.8248659808 -8.4646614360
6
step 34
 C  3.4178022849  0.7329863911 -9.2262628848
 C  4.6692507425  0.8812481013 -8.8416531915
 H  3.0317263650 -0.2330428037 -9.5674080314
 H  2.6601214659  1.5332492291 -9.2799003370
 H  5.4267086946  0.0981845216 -8.7827072056
 H  5.0519863271  1.8265425847 -8.4574230619
6
step 35
 C  3.4180196273  0.7322525426 -9.2250859211
 C  4.6688479757  0.8838899489 -8.8406763583
 H  3.0385009988 -0.2341146981 -9.5673816668
 H  2.6681139975  1.5237639125 -9.2791208939
 H  5.4208630772  0.1030805979 -8.7794485952
 H  5.0406282364  1.8280791251 -8.4510385002
6
step 36
 C  3.4183148099  0.7313907031 -9.2239825732
 C  4.6683315776  0.8866306000 -8.8395986203
 H  3.0459004450 -0.2343634004 -9.5670365815
 H  2.6774774329  1.5142183383 -9.2776578809
 H  5.4138956445  0.1073673792 -8.7769361089
 H  5.0288493601  1.8297031018 -8.4454423426
6
step 37
 C  3.4187739947  0.7303406708 -9.2229463495
 C  4.6676480373  0.8894752512 -8.8384239349
 H  3.0537679602 -0.2340120184 -9.5664689635
 H  2.6871984629  1.5055751511 -9.2755838882
 H  5.4063302426  0.1107112566 -8.7751227041
 H  5.0169068880  1.8316638404 -8.4405433806
6
step 38
 C  3.4194828017  0.7290511988 -9.2219679300
 C  4.6667493065  0.8924250920 -8.8371577647
 H  3.0619106749 -0.2333644841 -9.5658051720
 H  2.6962492602  1.4987855464 -9.2729828679
 H  5.3986799934  0.1128210233 -8.7739483074
 H  5.0050607551  1.8342015362 -8.4362377644
6
step 39
 C  3.4205116387  0.7274893257 -9.2210374535
 C  4.6656005373  0.8954759166 -8.8358048237
 H  3.0701133282 -0.2327757651 -9.5651911390
 H  2.7037263093  1.4946452684 -9.2699391997
 H  5.3913933765  0.1134998160 -8.7733457422
 H  4.9935575295  1.8375151886 -8.4324236039
6
step 40
 C  3.4219011390  0.7256491586 -9.2201469303
 C  4.6641865623  0.8986171072 -8.8343670238
 H  3.0781546479 -0.2326134453 -9.5647785028
 H  2.7089898778  1.4936482456 -9.2665274268
 H  5.3848084923  0.1126895291 -8.7732462838
 H  4.9826165590  1.8417337422 -8.4290150038
6
step 41
 C  3.4236513582  0.7235569758 -9.2192923336
 C  4.6625159175  0.9018313993 -8.8328419979
 H  3.0858251974 -0.2332133494 -9.5647083226
 H  2.7117655332  1.4958782223 -9.2628061366
 H  5.3791245992  0.1104978235 -8.7735836838
 H  4.9724198943  1.8468949590 -8.4259532960
6
step 42
 C  3.4257180149  0.7212697657 -9.2184749764
 C  4.6606216489  0.9050958360 -8.8312224501
 H  3.0929447748 -0.2348340458 -9.5650934284
 H  2.7121733788  1.5009767280 -9.2588187045
 H  5.3743962167  0.1072003950 -8.7742955886
 H  4.9631067909  1.8529354801 -8.4232143591
6
step 43
 C  3.4280166939  0.7188671787 -9.2177020164
 C  4.6585584626  0.9083833843 -8.8294966166
 H  3.0993787019 -0.2376158772 -9.5660037552
 H  2.7106765658  1.5081981288 -9.2545982566
 H  5.3705526893  0.1032165037 -8.7753237503
 H  4.9547732784  1.8596956647 -8.4208070672
6
step 44
 C  3.4304338824  0.7164384630 -9.2169859853
 C  4.6563973671  0.9116655734 -8.8276494186
 H  3.1050478537 -0.2415552900 -9.5674550469
 H  2.7079663563  1.5165375516 -9.2501770673
 H  5.3674327546  0.0990638431 -8.7766119150
 H  4.9474748648  1.8669352910 -8.4187693180
6
step 45
 C  3.4328412967  0.7140689594 -9.2163435481
 C  4.6542184266  0.9149149805 -8.8256643056
 H  3.1099324963 -0.2464991148 -9.5694059123
 H  2.7048239031  1.5248875486 -9.2455938867
 H  5.3648291142  0.0953016049 -8.7781041364
 H  4.9412319326  1.8743595658 -8.4171578476
6
step 46
 C  3.4351101976  0.7118288020 -9.2157938760
 C  4.6521024765  0.9181076782 -8.8235254991
 H  3.1140691903 -0.2521573441 -9.5717596727
 H  2.7019961720  1.5321847640 -9.2408992506
 H  5.3625349221  0.0924681035 -8.7797416482
 H  4.9360384915  1.8816534035 -8.4160362347
6
step 47
 C  3.4371239251  0.7097668471 -9.2153564426
 C  4.6501235345  0.9212244829 -8.8212201908
 H  3.1175401907 -0.2581392563 -9.5743771865
 H  2.7001011444  1.5375228346 -9.2361559234
 H  5.3603826162  0.0910283993 -8.7814626147
 H  4.9318697261  1.8885148335 -8.4154612960
6
step 48
 C  3.4387875862  0.7079087120 -9.2150487884
 C  4.6483421157  0.9242516084 -8.8187405288
 H  3.1204584542 -0.2640004965 -9.5770930966
 H  2.6995690511  1.5402258803 -9.2314372903
 H  5.3582738061  0.0913316955 -8.7832018928
 H  4.9286900278  1.8946869860 -8.4154712355
6
step 49
 C  3.4400351573  0.7062585319 -9.2148841202
 C  4.6468006687  0.9271802831 -8.8160850641
 H  3.1229496685 -0.2692994140 -9.5797378509
 H  2.7006087290  1.5398902630 -9.2268230531
 H  5.3561958273  0.0935870586 -8.7848937466
 H  4.9264578078  1.8999805977 -8.4160765554
6
step 50
 C  3.4408337964  0.7048018206 -9.2148695377
 C  4.6455203500  0.9300062806 -8.8132597553
 H  3.1251362043 -0.2736454763 -9.5821555416
 H  2.7031970762  1.5364009125 -9.2223951970
 H  5.3542302848  0.0978484656 -8.7864734468
 H  4.9251306418  1.9042923700 -8.4172541584
6
step 51
 C  3.4411858742  0.7035090835 -9.2150047338
 C  4.6445000125  0.9327290863 -8.8102782641
 H  3.1271233252 -0.2767412103 -9.5842203011
 H  2.7070808713  1.5299314688 -9.2182333449
 H  5.3525505723  0.1040148921 -8.7878800784
 H  4.9246676483  1.9076132632 -8.4189453457
6
step 52
 C  3.4411285868  0.7023395095 -9.2152813479
 C  4.6437172590  0.9353509264 -8.8071616118
 H  3.1289893762 -0.2784126320 -9.5858490468
 H  2.7117905041  1.5209296323 -9.2144096863
 H  5.3514099072  0.1118434053 -8.7890600518
 H  4.9250296762  1.9100277412 -8.4210570454
6
step 53
 C  3.4407308695  0.7012449149 -9.2156831937
 C  4.6431315198  0.9378757733 -8.8039370218
 H  3.1307798809 -0.2786282701 -9.5870086259
 H  2.7166696356  1.5100840636 -9.2109851488
 H  5.3511190961  0.1209749477 -8.7899692362
 H  4.9261779332  1.9117047548 -8.4234678527
6
step 54
 C  3.4400872884  0.7001745966 -9.2161869916
 C  4.6426891547  0.9403081301 -8.8006362865
 H  3.1325057927 -0.2775057518 -9.5877196193
 H  2.7209250592  1.4982668290 -9.2080053437
 H  5.3520143756  0.1309738218 -8.7905758662
 H  4.9280700460  1.9128790042 -8.4260362056
6
step 55
 C  3.4393085493  0.6990815966 -9.2167637132
 C  4.6423301041  0.9426517376 -8.7972936675
 H  3.1341456510 -0.2753055361 -9.5880547862
 H  2.7237045056  1.4864439606 -9.2054983663
 H  5.3544165576  0.1413776885 -8.7908620497
 H  4.9306547547  1.9138249851 -8.4286114147
6
step 56
 C  3.4385088904  0.6979304374 -9.2173803365
 C  4.6419954887  0.9449082861 -8.7939435889
 H  3.1356515404 -0.2724110545 -9.5881323379
 H  2.7242028807  1.4755544480 -9.2034749582
 H  5.3585848489  0.1517535988 -8.7908239858
 H  4.9338655254  1.9148254819 -8.4310461928
6
step 57
 C  3.4377916161  0.6967052236 -9.2180018692
 C  4.6416352238  0.9470764150 -8.7906184051
 H  3.1369587145 -0.2692945328 -9.5881037539
 H  2.7217864460  1.4663714025 -9.2019314117
 H  5.3646713532  0.1617520257 -8.7904707780
 H  4.9376138478  1.9161377435 -8.4332092956
6
step 58
 C  3.4372352273  0.6954157568 -9.2185935479
 C  4.6412145070  0.9491513760 -8.7873465188
 H  3.1379986062 -0.2664687445 -9.5881361995
 H  2.7161104953  1.4593747042 -9.2008545863
 H  5.3726842930  0.1711489277 -8.7898220644
 H  4.9417832698  1.9179617041 -8.4349966181
6
step 59
 C  3.4368832728  0.6940988503 -9.2191231575
 C  4.6407180792  0.9511256579 -8.7841510685
 H  3.1387144674 -0.2644273515 -9.5883904919
 H  2.7071978520  1.4546718479 -9.2002273030
 H  5.3824680339  0.1798669031 -8.7889049966
 H  4.9462254369  1.9204150849 -8.4363391095
6
step 60
 C  3.4367404713  0.6928131495 -9.2195633681
 C  4.6401514911  0.9529905981 -8.7810493038
 H  3.1390780392 -0.2635802147 -9.5889969648
 H  2.6954517670  1.4519936262 -9.2000320327
 H  5.3937053695  0.1879708716 -8.7877512369
 H  4.9507594001  1.9235196345 -8.4372062435
6
step 61
 C  3.4367758291  0.6916282238 -9.2198938362
 C  4.6395391928  0.9547386513 -8.7780526596
 H  3.1391046122 -0.2641939459 -9.5900330914
 H  2.6815977920  1.4507655955 -9.2002516478
 H  5.4059427475  0.1956400452 -8.7863945099
 H  4.9551751224  1.9272010266 -8.4376045008
6
step 62
 C  3.4369313654  0.6906110747 -9.2201026639
 C  4.6389198855  0.9563657289 -8.7751674526
 H  3.1388631561 -0.2663499064 -9.5915075366
 H  2.6665734607  1.4502297610 -9.2008675465
 H  5.4186339505  0.2031235622 -8.7848689370
 H  4.9592414036  1.9313023982 -8.4375712104
6
step 63
 C  3.4371338227  0.6898140106 -9.2201868105
 C  4.6383400410  0.9578730129 -8.7723960526
 H  3.1384785484 -0.2699297963 -9.5933546447
 H  2.6513978838  1.4495792167 -9.2018565688
 H  5.4311942335  0.2106898480 -8.7832081138
 H  4.9627175698  1.9356089673 -8.4371649112
6
step 64
 C  3.4373067758  0.6892667672 -9.2201512628
 C  4.6378466722  0.9592678620 -8.7697383362
 H  3.1381245561 -0.2746327857 -9.5954410661
 H  2.6370506882  1.4480749017 -9.2031882441
 H  5.4430561373  0.2185790007 -8.7814447288
 H  4.9653675217  1.9398793893 -8.4364538803
6
step 65
 C  3.4373814007  0.6889737526 -9.2200070932
 C  4.6374803526  0.9605637469 -8.7671932275
 H  3.1380085516 -0.2800202019 -9.5975831472
 H  2.6243772037  1.4451293841 -9.2048233049
 H  5.4537197583  0.2269644620 -8.7796104719
 H  4.9669743538  1.9438788745 -8.4355045436
6
step 66
 C  3.4373050936  0.6889155678 -9.2197688115
 C  4.6372692469  0.9617794107 -8.7647601393
 H  3.1383509601 -0.2855776138 -9.5995712322
 H  2.6140237243  1.4403569279 -9.2067136722
 H  5.4627929616  0.2359267389 -8.7777360182
 H  4.9673538083  1.9474095705 -8.4343712080
6
step 67
 C  3.4370477601  0.6890531320 -9.2194515287
 C  4.6372246474  0.9629375751 -8.7624401566
 H  3.1393632902 -0.2907820721 -9.6011961052
 H  2.6063986019  1.4335967980 -9.2088036524
 H  5.4700195557  0.2454393292 -8.7758509451
 H  4.9663652088  1.9503348811 -8.4330880979
6
step 68
 C  3.4366058534  0.6893328043 -9.2190683915
 C  4.6373383040  0.9640634994 -8.7602368455
 H  3.1412281604 -0.2951641544 -9.6022734586
 H  2.6016526570  1.4249180474 -9.2110319637
 H  5.4752950172  0.2553657722 -8.7739834928
 H  4.9639190267  1.9525957119 -8.4316642236
6
step 69
 C  3.4360042351  0.6896914639 -9.2186285950
 C  4.6375817107  0.9651835995 -8.7581566060
 H  3.1440835291 -0.2983583997 -9.6026637879
 H  2.5996742332  1.4146114268 -9.2133342814
 H  5.4786697768  0.2654666985 -8.7721601082
 H  4.9599806830  1.9542176780 -8.4300812673
6
step 70
 C  3.4352957729  0.6900611948 -9.2181361073
 C  4.6379074525  0.9663242119 -8.7562085309
 H  3.1480120510 -0.3001395330 -9.6022866269
 H  2.6000981704  1.4031699333 -9.2156461014
 H  5.4803397450  0.2754163184 -8.7704047273
 H  4.9545704968  1.9553089739 -8.4282944814
6
step 71
 C  3.4345583736  0.6903737754 -9.2175891268
 C  4.6382526553  0.9675104901 -8.7544037764
 H  3.1530355858 -0.3004442566 -9.6011290025
 H  2.6023323109  1.3912556034 -9.2179057636
 H  5.4806233336  0.2848282728 -8.7687377509
 H  4.9477599220  1.9560490355 -8.4262364929
6
step 72
 C  3.4338890074  0.6905654405 -9.2169802356
 C  4.6385444641  0.9687653748 -8.7527544910
 H  3.1591144945 -0.2993790845 -9.5992482977
 H  2.6056081468  1.3796478245 -9.2200573945
 H  5.4799245452  0.2932905956 -8.7671747042
 H  4.9396644592  1.9566685972 -8.4238238277
6
step 73
 C  3.4333944009  0.6905823004 -9.2162972123
 C  4.6387072282  0.9701086004 -8.7512723931
 H  3.1661513542 -0.2972142421 -9.5967695832
 H  2.6090617317  1.3691691285 -9.2220533529
 H  5.4786833361  0.3004083959 -8.7657246564
 H  4.9304339227  1.9574224798 -8.4209657893
6
step 74
 C  3.4331786457  0.6903863066 -9.2155244813
 C  4.6386707257  0.9715557816 -8.7499671347
 H  3.1739988342 -0.2943628233 -9.5938772087
 H  2.6118448834  1.3605894945 -9.2238556345
 H  5.4773174911  0.3058507506 -8.7643885958
 H  4.9202410930  1.9585574930 -8.4175750315
6
step 75
 C  3.4333290231  0.6899608333 -9.2146451646
 C  4.6383783818  0.9731177362 -8.7488446277
 H  3.1824714724 -0.2913439895 -9.5908002992
 H  2.6132546819  1.3545195819 -9.2254357800
 H  5.4761639107  0.3093957665 -8.7631580474
 H  4.9092701195  1.9602790279 -8.4135788030
6
step 76
 C  3.4339025448  0.6893141231 -9.2136436484
 C  4.6377941878  0.9748002710 -8.7479055290
 H  3.1913608745 -0.2887297783 -9.5877920702
 H  2.6128552359  1.3513137457 -9.2267732452
 H  5.4754299015  0.3109660102 -8.7620142775
 H  4.8977061917  1.9627209014 -8.4089295287
6
step 77
 C  3.4349163438  0.6884786447 -9.2125084572
 C  4.6369070913  0.9766046251 -8.7471440795
 H  3.2004533638 -0.2870776473 -9.5851037762
 H  2.6105582950  1.3510086094 -9.2278528013
 H  5.4751648930  0.3106467990 -8.7609283986
 H  4.8857277818  1.9659232742 -8.4036132237
6
step 78
 C  3.4363444212  0.6875053055 -9.2112350826
 C  4.6357320619  0.9785285995 -8.7465474580
 H  3.2095483720 -0.2868552191 -9.5829556629
 H  2.6066367382  1.3533165149 -9.2286619923
 H  5.4752591368  0.3086827579 -8.7598625393
 H  4.8735021891  1.9698226531 -8.3976543401
6
step 79
 C  3.4381214150  0.6864533009 -9.2098282935
 C  4.6343077327  0.9805681708 -8.7460957653
 H  3.2184750783 -0.2883686397 -9.5815091055
 H  2.6016666156  1.3576762277 -9.2291896201
 H  5.4754694660  0.3054527910 -8.7587719887
 H  4.8611843471  1.9742560997 -8.3911160654
6
step 80
 C  3.4401519754  0.6853781833 -9.2083034313
 C  4.6326912138  0.9827192011 -8.7457626767
 H  3.2271044070 -0.2917090863 -9.5808452895
 H  2.5964174790  1.3633448660 -9.2294256836
 H  5.4754657063  0.3014283874 -8.7576079798
 H  4.8489181920  1.9789792131 -8.3840958552
6
step 81
 C  3.4423231374  0.6843214223 -9.2066863233
 C  4.6309511219  0.9849788189 -8.7455167185
 H  3.2353539955 -0.2967305758 -9.5809553414
 H  2.5917234172  1.3695053847 -9.2293625552
 H  5.4748874483  0.2971231384 -8.7563206455
 H  4.8368394934  1.9836949555 -8.3767168588
6
step 82
 C  3.4445171316  0.6833039335 -9.2050117074
 C  4.6291599672  0.9873461799 -8.7453230419
 H  3.2431853268 -0.3030654864 -9.5817444614
 H  2.5883641330  1.3753663524 -9.2289968167
 H  5.4734007320  0.2930416467 -8.7548617092
 H  4.8250789813  1.9880887314 -8.3691164814
6
step 83
 C  3.4466229032  0.6823243967 -9.2033203925
 C  4.6273868538  0.9898225258 -8.7451455152
 H  3.2505942469 -0.3101745067 -9.5830490877
 H  2.5869727789  1.3802405731 -9.2283311796
 H  5.4707468524  0.2896341573 -8.7531866054
 H  4.8137648459  1.9918646819 -8.3614336139
6
step 84
 C  3.4485455340  0.6813616095 -9.2016556366
 C  4.6256911585  0.9924106540 -8.7449489162
 H  3.2575976101 -0.3174195023 -9.5846630175
 H  2.5879742832  1.3835993341 -9.2273761176
 H  5.4667790657  0.2872605557 -8.7512559057
 H  4.8030240556  1.9947787816 -8.3537960661
6
step 85
 C  3.4502133797  0.6803792933 -9.2000593305
 C  4.6241175913  0.9951140183 -8.7447010107
 H  3.2642192144 -0.3241444340 -9.5863670566
 H  2.5915499871  1.3851054589 -9.2261510381
 H  5.4614858988  0.2861650962 -8.7490360842
 H  4.7929822650  1.9966655297 -8.3463094991
6
step 86
 C  3.4515829696  0.6793317621 -9.1985685065
 C  4.6226928808  0.9979356894 -8.7443743189
 H  3.2704775725 -0.3297513363 -9.5879573470
 H  2.5976223360  1.3846301907 -9.2246849100
 H  5.4550013081  0.2864619683 -8.7464997568
 H  4.7837623086  1.9974563005 -8.3390488131
6
step 87
 C  3.4526416830  0.6781693923 -9.1972125316
 C  4.6214242586  1.0008773453 -8.7439474084
 H  3.2763769500 -0.3337632024 -9.5892692393
 H  2.6058553583  1.3822574601 -9.2230162577
 H  5.4476021623  0.2881316224 -8.7436255659
 H  4.7754814012  1.9971883798 -8.3320526453
6
step 88
 C  3.4534080307  0.6768435256 -9.1960111713
 C  4.6202998944  1.0039383678 -8.7434055866
 H  3.2819020637 -0.3358705366 -9.5901953774
 H  2.6156705956  1.3782758599 -9.2211923634
 H  5.4396930001  0.2910282650 -8.7403978912
 H  4.7682472400  1.9960042519 -8.3253214609
6
step 89
 C  3.4539291749  0.6753110126 -9.1949735786
 C  4.6192913876  1.0071150376 -8.7427409059
 H  3.2870161806 -0.3359614449 -9.5906978389
 H  2.6262821385  1.3731551252 -9.2192674829
 H  5.4317775206  0.2948994547 -8.7368065683
 H  4.7621532692  1.9941409882 -8.3188196212
6
step 90
 C  3.4542752471  0.6735388939 -9.1940981965
 C  4.6183582905  1.0103997781 -8.7419514422
 H  3.2916621073 -0.3341359680 -9.5908145071
 H  2.6367566600  1.3675016218 -9.2172999389
 H  5.4244165872  0.2994185455 -8.7328468121
 H  4.7572734504  1.9919098928 -8.3124817186
6
step 91
 C  3.4545302594  0.6715096163 -9.1933735275
 C  4.6174543879  1.0137804280 -8.7410398751
 H  3.2957656047 -0.3307044522 -9.5906595355
 H  2.6461027916  1.3619881493 -9.2153481846
 H  5.4181742033  0.3042292231 -8.7285195574
 H  4.7536569459  1.9896671840 -8.3062231933
6
step 92
 C  3.4547800758  0.6692266056 -9.1927797154
 C  4.6165350930  1.0172396313 -8.7400114875
 H  3.2992409486 -0.3261680918 -9.5904171068
 H  2.6533872279  1.3572590405 -9.2134663032
 H  5.4135559592  0.3089984249 -8.7238324156
 H  4.7513231498  1.9877775789 -8.2999547418
6
step 93
 C  3.4550989748  0.6667190617 -9.1922908704
 C  4.6155649414  1.0207545776 -8.7388718073
 H  3.3019985793 -0.3211785182 -9.5903271075
 H  2.6578630633  1.3538220997 -9.2116997994
 H  5.4109480477  0.3134702242 -8.7188013447
 H  4.7502574778  1.9865741546 -8.2935992812
6
step 94
 C  3.4555373698  0.6640439267 -9.1918780496
 C  4.6145239225  1.0242974204 -8.7376242132
 H  3.3039549114 -0.3164737593 -9.5906613228
 H  2.6590837418  1.3519504922 -9.2100826761
 H  5.4105674545  0.3175104545 -8.7134529110
 H  4.7504082819  1.9863193935 -8.2871093866
6
step 95
 C  3.4561135894  0.6612828377 -9.1915127401
 C  4.6134114473  1.0278366252 -8.7362678944
 H  3.3050442653 -0.3127913423 -9.5916899202
 H  2.6569718420  1.3516226648 -9.2086364672
 H  5.4124335782  0.3211319136 -8.7078267060
 H  4.7516852172  1.9871732616 -8.2804824256
6
step 96
 C  3.4568117265  0.6585331128 -9.1911705627
 C  4.6122471785  1.0313392355 -8.7347965459
 H  3.3052323312 -0.3107662363 -9.5936406652
 H  2.6518219073  1.3525203035 -9.2073711880
 H  5.4163675913  0.3244938317 -8.7019772148
 H  4.7539593826  1.9891738941 -8.2737704269
6
step 97
 C  3.4575857407  0.6558941347 -9.1908346984
 C  4.6110686117  1.0347736795 -8.7331980854
 H  3.3045295728 -0.3108300898 -9.5966570386
 H  2.6442377747  1.3540850814 -9.2062874837
 H  5.4220194791  0.3278757870 -8.6959743867
 H  4.7570655554  1.9922346984 -8.2670823059
6
step 98
 C  3.4583682196  0.6534526401 -9.1904983471
 C  4.6099259633  1.0381124853 -8.7314554934
 H  3.3030018698 -0.3131343949 -9.6007644812
 H  2.6350255477  1.3556152908 -9.2053790382
 H  5.4289164360  0.3316326564 -8.6899024219
 H  4.7608067500  1.9961586857 -8.2605774691
6
step 99
 C  3.4590814007  0.6512710160 -9.1901655317
 C  4.6088753441  1.0413342684 -8.7295486641
 H  3.3007752616 -0.3175185849 -9.6058540716
 H  2.6250722352  1.3563744719 -9.2046345980
 H  5.4365226163  0.3361407863 -8.6838567408
 H  4.7649610934  2.0006675003 -8.2544516121
6
step 100
 C  3.4596483176  0.6493813806 -9.1898498845
 C  4.6079713108  1.0444246121 -8.7274569717
 H  3.2980326069 -0.3235328272 -9.6116889541
 H  2.6152352589  1.3556882854 -9.2040394080
 H  5.4443001004  0.3417454072 -8.6779395450
 H  4.7692906186  2.0054400328 -8.2489170191
6
step 101
 C  3.4600027149  0.6477858875 -9.1895716116
 C  4.6072597410  1.0473758264 -8.7251621549
 H  3.2950021184 -0.3305090872 -9.6179322021
 H  2.6062561244  1.3530171271 -9.2035761464
 H  5.4517634425  0.3487164550 -8.6722546452
 H  4.7735512333  2.0101544456 -8.2441804660
6
step 102
 C  3.4600971020  0.6464616942 -9.1893533263
 C  4.6067717250  1.0501858563 -8.7226511114
 H  3.2919400241 -0.3376612498 -9.6241888913
 H  2.5987004739  1.3480026757 -9.2032255337
 H  5.4585235183  0.3572163251 -8.6669022652
 H  4.7775029410  2.0145279265 -8.2404218271
6
step 103
 C  3.4599087447  0.6453682104 -9.1892156486
 C  4.6065189234  1.0528567393 -8.7199182583
 H  3.2891108747 -0.3441914389 -9.6300527931
 H  2.5929205066  1.3404926348 -9.2029667396
 H  5.4643191359  0.3672802464 -8.6619743995
 H  4.7809194128  2.0183499428 -8.2377758559
6
step 104
 C  3.4594435477  0.6444545635 -9.1891733332
 C  4.6064906709  1.0553929851 -8.7169672115
 H  3.2867688535 -0.3493846905 -9.6351495886
 H  2.5890344812  1.3305491913 -9.2027776155
 H  5.4690363027  0.3788085568 -8.6575511113
 H  4.7835961814  2.0215064383 -8.2363187328
6
step 105
 C  3.4587377666  0.6436661386 -9.1892323843
 C  4.6066530143  1.0578001319 -8.7138116237
 H  3.2851422833 -0.3526829241 -9.6391720016
 H  2.5869200825  1.3184448274 -9.2026347261
 H  5.4727151460  0.3915700874 -8.6536980096
 H  4.7853569605  2.0239936799 -8.2360602263
6
step 106
 C  3.4578573669  0.6429499962 -9.1893882997
 C  4.6069498445  1.0600835898 -8.7104750896
 H  3.2844221787 -0.3537367507 -9.6419055951
 H  2.5862221327  1.3046459018 -9.2025131317
 H  5.4755437284  0.4052165213 -8.6504650628
 H  4.7860577843  2.0259210860 -8.2369418632
6
step 107