6
step 0
 C  3.4184732309  0.7732281452 -9.2478909243
 C  4.6807924886  0.7907411109 -8.9135253087
 H  2.9085976504 -0.1397359400 -9.5256067410
 H  2.8145828089  1.6707850330 -9.2655943346
 H  5.2847645353 -0.1067684741 -8.8962028520
 H  5.1907893948  1.7037501461 -8.6361800834
6
step 1
 C  3.4196730459  0.7716324281 -9.2479634612
 C  4.6790840927  0.7943740529 -8.9094996194
 H  2.9168539910 -0.1413471078 -9.5259393296
 H  2.8252943307  1.6586912012 -9.2589553234
 H  5.2751685787 -0.1011244835 -8.9018437307
 H  5.1819260699  1.7097739302 -8.6407987796
6
step 2
 C  3.4209301499  0.7699708035 -9.2480205486
 C  4.6773541887  0.7979945105 -8.9055220293
 H  2.9248588303 -0.1432004824 -9.5263577273
 H  2.8349035248  1.6479508704 -9.2524605579
 H  5.2662085562 -0.0959661976 -8.9073220883
 H  5.1733826373  1.7159926510 -8.6451812715
6
step 3
 C  3.4222990660  0.7681755729 -9.2480490237
 C  4.6755804093  0.8016063508 -8.9016172033
 H  2.9324240049 -0.1455140702 -9.5269426898
 H  2.8424393527  1.6397472121 -9.2462054494
 H  5.2584182609 -0.0916842041 -8.9125189249
 H  5.1654018400  1.7225903489 -8.6491371652
6
step 4
 C  3.4238107242  0.7662003529 -9.2480393950
 C  4.6737556687  0.8052091684 -8.8978051232
 H  2.9393953386 -0.1484530922 -9.5277590864
 H  2.8471487617  1.6349473887 -9.2402682712
 H  5.2522297854 -0.0885388709 -8.9173277893
 H  5.1581749054  1.7296821369 -8.6525063980
6
step 5
 C  3.4254609009  0.7640332036 -9.2479862800
 C  4.6718929191  0.8087962955 -8.8941004031
 H  2.9456631014 -0.1521107547 -9.5288494713
 H  2.8486185817  1.6339225571 -9.2347158853
 H  5.2479361285 -0.0866087560 -8.9216517947
 H  5.1518276505  1.7372906513 -8.6551658402
6
step 6
 C  3.4272050561  0.7617026546 -9.2478881771
 C  4.6700266764  0.8123540408 -8.8905123671
 H  2.9511683571 -0.1564962033 -9.5302297003
 H  2.8468367440  1.6364601450 -9.2296123843
 H  5.2456728769 -0.0857679012 -8.9253996935
 H  5.1464146701  1.7453359050 -8.6570315217
6
step 7
 C  3.4289616260  0.7592737458 -9.2477468364
 C  4.6682108747  0.8158625018 -8.8870457464
 H  2.9559048867 -0.1615309494 -9.5318870637
 H  2.8421705371  1.6418041391 -9.2250261135
 H  5.2454218459 -0.0856981362 -8.9284829285
 H  5.1419219873  1.7536406986 -8.6580566333
6
step 8
 C  3.4306228572  0.7568354828 -9.2475664817
 C  4.6665134024  0.8192977817 -8.8837017804
 H  2.9599165126 -0.1670545973 -9.5337812712
 H  2.8352721042  1.6488078140 -9.2210314608
 H  5.2470343464 -0.0859333723 -8.9308150862
 H  5.1382770540  1.7619506152 -8.6582261475
6
step 9
 C  3.4320698812  0.7544844870 -9.2473529771
 C  4.6650083415  0.8226349915 -8.8804794949
 H  2.9632899060 -0.1728398733 -9.5358484217
 H  2.8269467284  1.6561424199 -9.2177048828
 H  5.2502677737 -0.0859250783 -8.9323141594
 H  5.1353639290  1.7699648655 -8.6575493029
6
step 10
 C  3.4331882094  0.7523100101 -9.2471128894
 C  4.6637672616  0.8258512644 -8.8773769948
 H  2.9661434966 -0.1786156120 -9.5380076496
 H  2.8180230765  1.6624992738 -9.2151174611
 H  5.2548277369 -0.0851148915 -8.9329069607
 H  5.1330410411  1.7773726952 -8.6560512400
6
step 11
 C  3.4338809209  0.7503834157 -9.2468524074
 C  4.6628508844  0.8289281748 -8.8743926637
 H  2.9686137266 -0.1840949472 -9.5401696556
 H  2.8092504352  1.6667456133 -9.2133270575
 H  5.2604088219 -0.0830018735 -8.9325344299
 H  5.1311590149  1.7838898572 -8.6537648951
6
step 12
 C  3.4340783737  0.7487526492 -9.2465761845
 C  4.6623021337  0.8318532858 -8.8715261933
 H  2.9708403654 -0.1890051399 -9.5422460234
 H  2.8012299036  1.6680239662 -9.2123721622
 H  5.2667293310 -0.0791963592 -8.9311566195
 H  5.1295764784  1.7892905800 -8.6507239683
6
step 13
 C  3.4337444003  0.7474405580 -9.2462862714
 C  4.6621411912  0.8346208693 -8.8687793594
 H  2.9729526994 -0.1931155157 -9.5441581961
 H  2.7943744775  1.6658042168 -9.2122681197
 H  5.2735577640 -0.0734571258 -8.9287565320
 H  5.1281724126  1.7934319862 -8.6469574659
6
step 14
 C  3.4328794591  0.7464454564 -9.2459813279
 C  4.6623628345  0.8372320107 -8.8661564712
 H  2.9750581137 -0.1962607474 -9.5458451754
 H  2.7888889237  1.6599037670 -9.2130055119
 H  5.2807305186 -0.0657118977 -8.9253424056
 H  5.1268542425  1.7962693791 -8.6424860563
6
step 15
 C  3.4315212524  0.7457426761 -9.2456562493
 C  4.6629361063  0.8396943298 -8.8636644366
 H  2.9772340683 -0.1983577231 -9.5472693187
 H  2.7847618953  1.6504882671 -9.2145502274
 H  5.2881610049 -0.0560624589 -8.9209483240
 H  5.1255613528  1.7978618184 -8.6373203172
6
step 16
 C  3.4297431001  0.7452865439 -9.2453022525
 C  4.6638062417  0.8420214514 -8.8613124189
 H  2.9795239404 -0.1994150792 -9.5484198770
 H  2.7817670816  1.6380582742 -9.2168449508
 H  5.2958402532 -0.0447753754 -8.9156331360
 H  5.1242640317  1.7983679127 -8.6314608813
6
step 17
 C  3.4276500318  0.7450129852 -9.2449073848
 C  4.6648987217  0.8442322267 -8.8591111066
 H  2.9819367915 -0.1995349577 -9.5493140863
 H  2.7794754554  1.6234192170 -9.2198121358
 H  5.3038286239 -0.0322585419 -8.9094777123
 H  5.1229581005  1.7980320522 -8.6249004845
6
step 18
 C  3.4253722508  0.7448435409 -9.2444573564
 C  4.6661252532  0.8463496129 -8.8570716471
 H  2.9844508388 -0.1989067794 -9.5499957232
 H  2.7772854921  1.6076255942 -9.2233586813
 H  5.3122379357 -0.0190234770 -8.9025806744
 H  5.1216557430  1.7971616963 -8.6176278983
6
step 19
 C  3.4230554959  0.7446918214 -9.2439365885
 C  4.6673913351  0.8483991074 -8.8552043354
 H  2.9870202074 -0.1977930166 -9.5505311260
 H  2.7744808223  1.5918880261 -9.2273822798
 H  5.3212037715 -0.0056342974 -8.8950529790
 H  5.1203734114  1.7960970774 -8.6096336290
6
step 20
 C  3.4208481117  0.7444730107 -9.2433294041
 C  4.6686048335  0.8504067435 -8.8535171650
 H  2.9895843621 -0.1965072577 -9.5510027836
 H  2.7703224048  1.5774369943 -9.2317786539
 H  5.3308492989  0.0073530544 -8.8870120933
 H  5.1191181817  1.7951758699 -8.6009170712
6
step 21
 C  3.4188855439  0.7441157863 -9.2426213603
 C  4.6696846739  0.8523968578 -8.8520143692
 H  2.9920794587 -0.1953854248 -9.5515007648
 H  2.7641721989  1.5653522394 -9.2364478945
 H  5.3412445809  0.0194541070 -8.8785768087
 H  5.1178744616  1.7946967587 -8.5914944904
6
step 22
 C  3.4172744393  0.7435742068 -9.2418007570
 C  4.6705684934  0.8543900473 -8.8506950931
 H  2.9944506745 -0.1947518893 -9.5521125104
 H  2.7556280685  1.5563889078 -9.2412976051
 H  5.3523682449  0.0303113861 -8.8698637493
 H  5.1165933012  1.7948868811 -8.5814068368
6
step 23
 C  3.4160798494  0.7428357407 -9.2408602913
 C  4.6712180281  0.8564018161 -8.8495523567
 H  2.9966643514 -0.1948834345 -9.5529118700
 H  2.7446332330  1.5508486299 -9.2462414081
 H  5.3640800675  0.0397313479 -8.8609861572
 H  5.1151864872  1.7958782379 -8.5707260690
6
step 24
 C  3.4153190979  0.7419220443 -9.2397986405
 C  4.6716212772  0.8584422746 -8.8485724758
 H  2.9987185036 -0.1959753892 -9.5539486708
 H  2.7315215275  1.5485396848 -9.2511936308
 H  5.3761121070  0.0476950692 -8.8520547065
 H  5.1135269949  1.7976970484 -8.5595585643
6
step 25
 C  3.4149640646  0.7408817076 -9.2386215855
 C  4.6717910678  0.8605169307 -8.8477350892
 H  3.0006499808 -0.1981153085 -9.5552404431
 H  2.7169795087  1.5488404126 -9.2560632238
 H  5.3880821037  0.0543412514 -8.8431792817
 H  5.1114562662  1.8002677622 -8.5480445071
6
step 26
 C  3.4149508144  0.7397775094 -9.2373422831
 C  4.6717603756  0.8626282570 -8.8470138712
 H  3.0025366238 -0.2012695170 -9.5567679737
 H  2.7019383701  1.5508406132 -9.2607503773
 H  5.3995272602  0.0599268487 -8.8344703333
 H  5.1087974096  1.8034306658 -8.5363528161
6
step 27
 C  3.4151933765  0.7386725560 -9.2359805078
 C  4.6715753680  0.8647775155 -8.8463779041
 H  3.0044933805 -0.2052859985 -9.5584759065
 H  2.6874320322  1.5535122626 -9.2651476007
 H  5.4099516461  0.0647750994 -8.8260387187
 H  5.1053722486  1.8069696228 -8.5246719804
6
step 28
 C  3.4155981420  0.7376191098 -9.2345609824
 C  4.6712874264  0.8669663466 -8.8457935643
 H  3.0066624871 -0.2099137837 -9.5602786313
 H  2.6744600718  1.5558644206 -9.2691446971
 H  5.4188782319  0.0692215017 -8.8179936460
 H  5.1010195921  1.8106451139 -8.5131979567
6
step 29
 C  3.4160764232  0.7366518940 -9.2331111285
 C  4.6709453488  0.8691978247 -8.8452266898
 H  3.0091990662 -0.2148354311 -9.5620705571
 H  2.6638799222  1.5570578055 -9.2726357418
 H  5.4258972925  0.0735659830 -8.8104390405
 H  5.0956121980  1.8142275782 -8.5021207726
6
step 30
 C  3.4165541410  0.7357856739 -9.2316586307
 C  4.6705886490  0.8714769175 -8.8446447630
 H  3.0122543781 -0.2197068287 -9.5637390397
 H  2.6563350819  1.5564756677 -9.2755261954
 H  5.4307055701  0.0780359306 -8.8034690443
 H  5.0890704908  1.8175268952 -8.4916115176
6
step 31
 C  3.4169786152  0.7350158408 -9.2302291505
 C  4.6702425233  0.8738104555 -8.8440188704
 H  3.0159591828 -0.2241980443 -9.5651779612
 H  2.6522142143  1.5537598810 -9.2777390428
 H  5.4331335692  0.0827615620 -8.7971634177
 H  5.0813718787  1.8204151861 -8.4818111129
6
step 32
 C  3.4173228427  0.7343205621 -9.2288444218
 C  4.6699147650  0.8762067801 -8.8433252512
 H  3.0204092801 -0.2280300447 -9.5663002125
 H  2.6516320597  1.5488240602 -9.2792195817
 H  5.4331604705  0.0877632543 -8.7915834637
 H  5.0725552298  1.8228414166 -8.4728218292
6
step 33
 C  3.4175876163  0.7336634679 -9.2275208601
 C  4.6695947444  0.8786752111 -8.8425463035
 H  3.0256545872 -0.2310039185 -9.5670478599
 H  2.6544248815  1.5418524476 -9.2799388499
 H  5.4309169668  0.0929499895 -8.7867689287
 H  5.0627205246  1.8248372104 -8.4647021559
6
step 34
 C  3.4178015653  0.7329964583 -9.2262687546
 C  4.6692544884  0.8812254008 -8.8416709579
 H  3.0316924343 -0.2330209140 -9.5673993052
 H  2.6601579325  1.5332876518 -9.2798956254
 H  5.4266761636  0.0981285362 -8.7827362265
 H  5.0520239473  1.8265138039 -8.4574653980
6
step 35
 C  3.4180188489  0.7322628089 -9.2250920866
 C  4.6688518430  0.8838665606 -8.8406943653
 H  3.0384652824 -0.2340926709 -9.5673731036
 H  2.6681480024  1.5238042710 -9.2791166326
 H  5.4208322486  0.1030236529 -8.7794782898
 H  5.0406688221  1.8280503761 -8.4510822328
6
step 36
 C  3.4183139492  0.7314012013 -9.2239890152
 C  4.6683356018  0.8866064966 -8.8396168929
 H  3.0458628334 -0.2343414631 -9.5670282692
 H  2.6775086349  1.5142606016 -9.2776542583
 H  5.4138667329  0.1073097148 -8.7769662765
 H  5.0288930001  1.8296743655 -8.4454872750
6
step 37
 C  3.4187730030  0.7303514452 -9.2229530519
 C  4.6676522685  0.8894504063 -8.8384424955
 H  3.0537283757 -0.2339903461 -9.5664609635
 H  2.6872268083  1.5056190968 -9.2755810616
 H  5.4063033197  0.1106531702 -8.7751531636
 H  5.0169536149  1.8316350323 -8.4405893460
6
step 38
 C  3.4194816050  0.7290623038 -9.2219748807
 C  4.6667538080  0.8923994813 -8.8371766331
 H  3.0618690764 -0.2333431789 -9.5657975103
 H  2.6962750014  1.4988307471 -9.2729809597
 H  5.3986549956  0.1127628576 -8.7739789008
 H  5.0051105461  1.8341725090 -8.4362846300
6
step 39
 C  3.4205101409  0.7275008231 -9.2210446442
 C  4.6656053811  0.8954495191 -8.8358240171
 H  3.0700697140 -0.2327548404 -9.5651838002
 H  2.7037499758  1.4946911148 -9.2699382987
 H  5.3913701285  0.1134419359 -8.7733763357
 H  4.9936103093  1.8374857430 -8.4324712696
6
step 40
 C  3.4218992313  0.7256611111 -9.2201543561
 C  4.6641918240  0.8985899063 -8.8343865581
 H  3.0781090563 -0.2325928195 -9.5647714274
 H  2.7090121937  1.4936940143 -9.2665275951
 H  5.3847867453  0.1126322869 -8.7732767661
 H  4.9826722051  1.8417036446 -8.4290633967
6
step 41
 C  3.4236489321  0.7235694386 -9.2192999911
 C  4.6625216689  0.9018033843 -8.8328618892
 H  3.0857777051 -0.2331928499 -9.5647014089
 H  2.7117872918  1.4959231819 -9.2628074193
 H  5.3791040765  0.1104415188 -8.7736139633
 H  4.9724782432  1.8468639649 -8.4260023609
6
step 42
 C  3.4257149763  0.7212827786 -9.2184828618
 C  4.6606279517  0.9050670027 -8.8312427166
 H  3.0928954923 -0.2348134263 -9.5650865394
 H  2.7121953063  1.5010202563 -9.2588211388
 H  5.3743766581  0.1071452361 -8.7743255900
 H  4.9631676443  1.8529033589 -8.4232640471
6
step 43
 C  3.4280129750  0.7188807603 -9.2177101238
 C  4.6585653632  0.9083537359 -8.8295172799
 H  3.0993277666 -0.2375948466 -9.5659967316
 H  2.7106992101  1.5082398095 -9.2546018767
 H  5.3705338854  0.1031625778 -8.7753534123
 H  4.9548364095  1.8596622228 -8.4208573251
6
step 44
 C  3.4304294492  0.7164526101 -9.2169943051
 C  4.6564048927  0.9116351194 -8.8276705052
 H  3.1049954213 -0.2415335508 -9.5674477230
 H  2.7079900259  1.5165772259 -9.2501819040
 H  5.3674145664  0.0990111006 -8.7766411893
 H  4.9475400237  1.8669003906 -8.4188200783
6
step 45
 C  3.4328361509  0.7140836501 -9.2163520656
 C  4.6542265840  0.9148837358 -8.8256858470
 H  3.1098787313 -0.2464764041 -9.5693981348
 H  2.7048486584  1.5249253192 -9.2455999636
 H  5.3648114766  0.0952498601 -8.7781329877
 H  4.9412988513  1.8743231359 -8.4172090234
6
step 46
 C  3.4351043750  0.7118440017 -9.2158025705
 C  4.6521112524  0.9180756616 -8.8235475320
 H  3.1140142571 -0.2521334706 -9.5717513175
 H  2.7020218562  1.5322209627 -9.2409065781
 H  5.3625178340  0.0924170492 -8.7797700561
 H  4.9361068890  1.8816154428 -8.4160877175
6
step 47
 C  3.4371174901  0.7097825150 -9.2153652878
 C  4.6501328983  0.9211917153 -8.8212427557
 H  3.1174842466 -0.2581141270 -9.5743681724
 H  2.7001274359  1.5375579707 -9.2361644936
 H  5.3603661209  0.0909776319 -8.7814905757
 H  4.9319393128  1.8884754058 -8.4155129583
6
step 48
 C  3.4387806257  0.7079248066 -9.2150577526
 C  4.6483520230  0.9242181118 -8.8187636691
 H  3.1204016446 -0.2639741293 -9.5770833927
 H  2.6995955230  1.5402605833 -9.2314470729
 H  5.3582579662  0.0912807460 -8.7832294216
 H  4.9287605105  1.8946462087 -8.4155229366
6
step 49
 C  3.4400277730  0.7062750143 -9.2148931675
 C  4.6468110658  0.9271460797 -8.8161088239
 H  3.1228921247 -0.2692719358 -9.5797274777
 H  2.7006349085  1.5399252282 -9.2268339938
 H  5.3561806977  0.0935354258 -8.7849208769
 H  4.9265288954  1.8999386262 -8.4161281493
6
step 50
 C  3.4408260971  0.7048186574 -9.2148786299
 C  4.6455311787  0.9299713921 -8.8132841772
 H  3.1250780422 -0.2736171082 -9.5821445665
 H  2.7032225011  1.5364368494 -9.2224072174
 H  5.3542158864  0.0977956494 -8.7865002312
 H  4.9252020506  1.9042493792 -8.4173055030
6
step 51
 C  3.4411779679  0.7035262479 -9.2150138322
 C  4.6445112151  0.9326935340 -8.8103033876
 H  3.1270646458 -0.2767122444 -9.5842088293
 H  2.7071051440  1.5299690523 -9.2182463447
 H  5.3525368676  0.1039604255 -8.7879065872
 H  4.9247391077  1.9075694277 -8.4189963129
6
step 52
 C  3.4411205724  0.7023569817 -9.2152904156
 C  4.6437287832  0.9353147313 -8.8071874707
 H  3.1289302661 -0.2783834019 -9.5858372090
 H  2.7118133459  1.5209694531 -9.2144235465
 H  5.3513967792  0.1117868824 -8.7890863700
 H  4.9251009346  1.9099832162 -8.4211075298
6
step 53
 C  3.4407228296  0.7012626833 -9.2156921977
 C  4.6431433223  0.9378389563 -8.8039636429
 H  3.1307204129 -0.2785991177 -9.5869965644
 H  2.7166909389  1.5101265790 -9.2109997371
 H  5.3511063332  0.1209160474 -8.7899954602
 H  4.9262487626  1.9116596585 -8.4235177793
6
step 54
 C  3.4400792822  0.7001926579 -9.2161959047
 C  4.6427012044  0.9402707122 -8.8006636885
 H  3.1324460265 -0.2774769929 -9.5877074724
 H  2.7209449346  1.4983123168 -9.2080205208
 H  5.3520016654  0.1309123222 -8.7906020989
 H  4.9281402471  1.9128334042 -8.4260855349
6
step 55
 C  3.4393006084  0.6990999559 -9.2167725155
 C  4.6423423832  0.9426137408 -8.7973218601
 H  3.1340856333 -0.2752774265 -9.5880426733
 H  2.7237233123  1.4864924860 -9.2055139930
 H  5.3544034924  0.1413134699 -8.7908883955
 H  4.9307241608  1.9137788904 -8.4286601446
6
step 56
 C  3.4385010172  0.6979491060 -9.2173890164
 C  4.6420079921  0.9448697338 -8.7939725732
 H  3.1355913055 -0.2723837585 -9.5881203452
 H  2.7242212272  1.4756058578 -9.2034909017
 H  5.3585709452  0.1516866338 -8.7908505455
 H  4.9339340062  1.9147788422 -8.4310943577
6
step 57
 C  3.4377837866  0.6967242150 -9.2180104241
 C  4.6416479563  0.9470373331 -8.7906481740
 H  3.1368982851 -0.2692680984 -9.5880919227
 H  2.7218051470  1.4664253565 -9.2019475503
 H  5.3646560867  0.1616823555 -8.7904976445
 H  4.9376813123  1.9160904563 -8.4332569611
6
step 58
 C  3.4372273992  0.6954350800 -9.2186019845
 C  4.6412274791  0.9491117933 -8.7873770584
 H  3.1379379936 -0.2664430883 -9.5881245196
 H  2.7161304815  1.4594307475 -9.2008708097
 H  5.3726671451  0.1710766292 -8.7898493196
 H  4.9418496696  1.9179136303 -8.4350438732
6
step 59
 C  3.4368753963  0.6941185026 -9.2191314914
 C  4.6407313018  0.9510856067 -8.7841823597
 H  3.1386536718 -0.2644022599 -9.5883789012
 H  2.7072200467  1.4547295078 -9.2002435110
 H  5.3824485442  0.1797920535 -8.7889327097
 H  4.9462907683  1.9203660698 -8.4363860563
6
step 60
 C  3.4367325010  0.6928331114 -9.2195716229
 C  4.6401649702  0.9529501135 -8.7810813236
 H  3.1390170482 -0.2635553631 -9.5889853577
 H  2.6954769574  1.4520525075 -9.2000481306
 H  5.3936831852  0.1878935192 -8.7877794641
 H  4.9508237069  1.9234695327 -8.4372529866
6
step 61
 C  3.4367677336  0.6916484572 -9.2199020415
 C  4.6395529253  0.9546977699 -8.7780853830
 H  3.1390433987 -0.2641689375 -9.5900213349
 H  2.6816265256  1.4508254475 -9.2002675430
 H  5.4059176615  0.1955601914 -8.7864232945
 H  4.9552384972  1.9271497257 -8.4376511374
6
step 62
 C  3.4369231339  0.6906315258 -9.2201108529
 C  4.6389338563  0.9563244866 -8.7752008538
 H  3.1388016745 -0.2663243248 -9.5914954931
 H  2.6666059886  1.4502905025 -9.2008831471
 H  5.4186059224  0.2030411583 -8.7848983106
 H  4.9593039879  1.9312498374 -8.4376178228
6
step 63
 C  3.4371254659  0.6898346167 -9.2201950171
 C  4.6383542226  0.9578314427 -8.7724301057
 H  3.1384167310 -0.2699032630 -9.5933421972
 H  2.6514341523  1.4496409243 -9.2018717850
 H  5.4311633919  0.2106048054 -8.7832380965
 H  4.9627795521  1.9355551492 -8.4372115627
6
step 64
 C  3.4372983244  0.6892874639 -9.2201595189
 C  4.6378610258  0.9592259920 -8.7697730158
 H  3.1380623108 -0.2746050114 -9.5954281401
 H  2.6370903682  1.4481377736 -9.2032029910
 H  5.4430227643  0.2184912088 -8.7814753303
 H  4.9654291339  1.9398243823 -8.4365006148
6
step 65
 C  3.4373729008  0.6889944814 -9.2200154270
 C  4.6374948311  0.9605215985 -8.7672285088
 H  3.1379457619 -0.2799910229 -9.5975697264
 H  2.6244197440  1.4451936954 -9.2048375066
 H  5.4536842613  0.2268738107 -8.7796416916
 H  4.9670358655  1.9438228072 -8.4355513881
6
step 66
 C  3.4372966009  0.6889362803 -9.2197772467
 C  4.6372837987  0.9617369978 -8.7647959975
 H  3.1382874888 -0.2855470082 -9.5995573659
 H  2.6140684143  1.4404229888 -9.2067272658
 H  5.4627558358  0.2358331411 -8.7777678455
 H  4.9674155195  1.9473526189 -8.4344181773
6
step 67
 C  3.4370393334  0.6890737928 -9.2194600840
 C  4.6372392214  0.9628949045 -8.7624765665
 H  3.1392989836 -0.2907501574 -9.6011819056
 H  2.6064446376  1.4336649166 -9.2088165913
 H  5.4699813419  0.2453427407 -8.7758833595
 H  4.9664274418  1.9502772513 -8.4331352013
6
step 68
 C  3.4365975482  0.6893533921 -9.2190770819
 C  4.6373528545  0.9640205709 -8.7602737808
 H  3.1411628550 -0.2951311697 -9.6022590921
 H  2.6016992071  1.4249885000 -9.2110442201
 H  5.4752562567  0.2552662078 -8.7740164640
 H  4.9639821177  1.9525376200 -8.4317114722
6
step 69
 C  3.4359960965  0.6897119703 -9.2186374324
 C  4.6375962024  0.9651404070 -8.7581940382
 H  3.1440170577 -0.2983246771 -9.6026494607
 H  2.5997205058  1.4146844318 -9.2133458474
 H  5.4786309673  0.2653642447 -8.7721935969
 H  4.9600449733  1.9541593297 -8.4301286807
6
step 70
 C  3.4352878293  0.6900816240 -9.2181451027
 C  4.6379218652  0.9662807446 -8.7562464287
 H  3.1479442478 -0.3001054633 -9.6022725678
 H  2.6001434810  1.4032456258 -9.2156569899
 H  5.4803012989  0.2753111423 -8.7704386851
 H  4.9546363242  1.9552505453 -8.4283420947
6
step 71
 C  3.4345506305  0.6903941423 -9.2175982916
 C  4.6382669878  0.9674667337 -8.7544421052
 H  3.1529662899 -0.3004102514 -9.6011154443
 H  2.6023761493  1.3913340112 -9.2179160069
 H  5.4805855431  0.2847206256 -8.7687721216
 H  4.9478276137  1.9559906575 -8.4262843619
6
step 72
 C  3.4338814424  0.6905857699 -9.2169895833
 C  4.6385587362  0.9687213121 -8.7527932127
 H  3.1590435528 -0.2993455370 -9.5992354576
 H  2.6056502389  1.3797288452 -9.2200670422
 H  5.4798875575  0.2931808117 -8.7672094254
 H  4.9397343246  1.9566103441 -8.4238720319
6
step 73
 C  3.4333869605  0.6906026251 -9.2163067599
 C  4.6387214814  0.9700642125 -8.7513114663
 H  3.1660786230 -0.2971814890 -9.5967576445
 H  2.6091020823  1.3692525146 -9.2220624684
 H  5.4786471457  0.3002968835 -8.7657596614
 H  4.9305062473  1.9573643660 -8.4210144337
6
step 74
 C  3.4331712458  0.6904066648 -9.2155342504
 C  4.6386850214  0.9715110485 -8.7500065151
 H  3.1739241800 -0.2943311079 -9.5938663035
 H  2.6118837861  1.3606748534 -9.2238642909
 H  5.4772819517  0.3057379738 -8.7644238166
 H  4.9203161336  1.9584994763 -8.4176242444
6
step 75
 C  3.4333215537  0.6899812647 -9.2146551822
 C  4.6383927971  0.9730726372 -8.7488842692
 H  3.1823947732 -0.2913134316 -9.5907904942
 H  2.6132926813  1.3546063990 -9.2254440558
 H  5.4761287693  0.3092822194 -8.7631934188
 H  4.9093480997  1.9602210219 -8.4136287318
6
step 76
 C  3.4338948797  0.6893346639 -9.2136539464
 C  4.6378088089  0.9747547854 -8.7479453853
 H  3.1912820208 -0.2887003534 -9.5877833574
 H  2.6128930384  1.3514014328 -9.2267812215
 H  5.4753948506  0.3108521827 -8.7620497408
 H  4.8977872976  1.9626627940 -8.4089803323
6
step 77
 C  3.4349083535  0.6884993226 -9.2125190717
 C  4.6369220065  0.9765587322 -8.7471841055
 H  3.2003722609 -0.2870491820 -9.5850960711
 H  2.6105966429  1.3510965707 -9.2278605598
 H  5.4751296326  0.3105331418 -8.7609639066
 H  4.8858121582  1.9658649517 -8.4036650632
6
step 78
 C  3.4363359865  0.6875261363 -9.2112460520
 C  4.6357473540  0.9784822782 -8.7465876120
 H  3.2094649428 -0.2868274065 -9.5829488111
 H  2.6066762759  1.3534042148 -9.2286696155
 H  5.4752234345  0.3085696491 -8.7598980595
 H  4.8735899347  1.9697640244 -8.3977073683
6
step 79
 C  3.4381124386  0.6864742879 -9.2098396554
 C  4.6343234729  0.9805213994 -8.7461360107
 H  3.2183892670 -0.2883410776 -9.5815028998
 H  2.6017077814  1.3577632447 -9.2291971924
 H  5.4754332035  0.3053405118 -8.7588075068
 H  4.8612755101  1.9741971178 -8.3911704169
6
step 80
 C  3.4401423891  0.6853993206 -9.2083152195
 C  4.6327074574  0.9826719559 -8.7458029839
 H  3.2270161833 -0.2916813330 -9.5808394942
 H  2.5964604428  1.3634309218 -9.2294332917
 H  5.4754289062  0.3013171091 -8.7576435012
 H  4.8490127659  1.9789198895 -8.3841516384
6
step 81
 C  3.4423129047  0.6843427000 -9.2066985642
 C  4.6309679063  0.9849310735 -8.7455570660
 H  3.2352633597 -0.2967022142 -9.5809497208
 H  2.5917680686  1.3695903483 -9.2293702886
 H  5.4748502773  0.2970129206 -8.7563561956
 H  4.8369374134  1.9836353663 -8.3767741499
6
step 82
 C  3.4445062462  0.6833253447 -9.2050244175
 C  4.6291773119  0.9872979046 -8.7453634175
 H  3.2430923156 -0.3030361841 -9.5817388071
 H  2.5884101090  1.3754502268 -9.2290047663
 H  5.4733634853  0.2929324456 -8.7548973327
 H  4.8251801233  1.9880290138 -8.3691753230
6
step 83
 C  3.4466113853  0.6823459430 -9.2033335759
 C  4.6274047619  0.9897736870 -8.7451859162
 H  3.2504989378 -0.3101440605 -9.5830432398
 H  2.5870195174  1.3803234717 -9.2283394360
 H  5.4707099228  0.2895258406 -8.7532223645
 H  4.8138690280  1.9918050232 -8.3614940160
6
step 84
 C  3.4485334246  0.6813833043 -9.2016692849
 C  4.6257096193  0.9923612145 -8.7449893491
 H  3.2575001250 -0.3173878615 -9.5846568768
 H  2.5880210872  1.3836814561 -9.2273847686
 H  5.4667429038  0.2871529213 -8.7512918780
 H  4.8031310421  1.9947194015 -8.3538580104
6
step 85
 C  3.4502007343  0.6804011638 -9.2000734230
 C  4.6241365844  0.9950639384 -8.7447414903
 H  3.2641197200 -0.3241117010 -9.5863605877
 H  2.5915960938  1.3851870641 -9.2261601652
 H  5.4614509678  0.2860578932 -8.7490723605
 H  4.7930917740  1.9966066591 -8.3463729464
6
step 86
 C  3.4515698520  0.6793538482 -9.1985830117
 C  4.6227123799  0.9978849278 -8.7444148672
 H  3.2703762774 -0.3297177495 -9.5879505731
 H  2.5976669864  1.3847115761 -9.2246945858
 H  5.4549680379  0.2863549193 -8.7465364383
 H  4.7838740217  1.9973981583 -8.3391137112
6
step 87
 C  3.4526281576  0.6781917449 -9.1972274095
 C  4.6214442357  1.0008258606 -8.7439880526
 H  3.2762740983 -0.3337291062 -9.5892622309
 H  2.6058978666  1.3823389348 -9.2230265417
 H  5.4475709038  0.2880244464 -8.7436627625
 H  4.7755949755  1.9971311498 -8.3321189400
6
step 88
 C  3.4533941564  0.6768662043 -9.1960263764
 C  4.6203203246  1.0038861202 -8.7434463575
 H  3.2817979244 -0.3358363434 -9.5901882374
 H  2.6157104196  1.3783577174 -9.2212032993
 H  5.4396639842  0.2909206998 -8.7404357192
 H  4.7683623211  1.9959480614 -8.3253891053
6
step 89
 C  3.4539149980  0.6753340826 -9.1949890628
 C  4.6193122522  1.0070619901 -8.7427818355
 H  3.2869110348 -0.3359275930 -9.5906906844
 H  2.6263189470  1.3732376121 -9.2192790949
 H  5.4317508242  0.2947912782 -8.7368451492
 H  4.7622695046  1.9940858903 -8.3188885859
6
step 90
 C  3.4542607958  0.6735624236 -9.1941139121
 C  4.6183795804  1.0103458983 -8.7419925622
 H  3.2915562334 -0.3341028764 -9.5908074501
 H  2.6367903902  1.3675849058 -9.2173122306
 H  5.4243921113  0.2993095921 -8.7328862708
 H  4.7573905024  1.9918558531 -8.3125519995
6
step 91
 C  3.4545155403  0.6715336743 -9.1933894306
 C  4.6174761045  1.0137256889 -8.7410812151
 H  3.2956592630 -0.3306724744 -9.5906526618
 H  2.6461336850  1.3620722924 -9.2153611382
 H  5.4181516686  0.3041193921 -8.7285600213
 H  4.7537745031  1.9896140751 -8.3062948167
6
step 92
 C  3.4547650738  0.6692512560 -9.1927957679
 C  4.6165572475  1.0171840125 -8.7400530744
 H  3.2991343670 -0.3261374699 -9.5904104552
 H  2.6534158288  1.3573439893 -9.2134798807
 H  5.4135349240  0.3088876776 -8.7238740130
 H  4.7514409355  1.9877251835 -8.3000277651
6
step 93
 C  3.4550836574  0.6667443591 -9.1923070427
 C  4.6155875518  1.0206980667 -8.7389136650
 H  3.3018919410 -0.3211493416 -9.5903206505
 H  2.6578901687  1.3539076999 -9.2117139466
 H  5.4109279481  0.3133585665 -8.7188442026
 H  4.7503752559  1.9865221780 -8.2936737880
6
step 94
 C  3.4555216956  0.6640699095 -9.1918943211
 C  4.6145470089  1.0242400135 -8.7376663635
 H  3.3038483476 -0.3164459346 -9.5906549521
 H  2.6591103024  1.3520365327 -9.2100973269
 H  5.4105476643  0.3173979085 -8.7134971521
 H  4.7505258592  1.9862674866 -8.2871854757
6
step 95
 C  3.4560975185  0.6613095220 -9.1915291002
 C  4.6134350266  1.0277783276 -8.7363103583
 H  3.3049378532 -0.3127645834 -9.5916834421
 H  2.6569988325  1.3517089405 -9.2086515487
 H  5.4124134791  0.3210184838 -8.7078724441
 H  4.7518024426  1.9871210510 -8.2805601954
6
step 96
 C  3.4567952317  0.6585604886 -9.1911870096
 C  4.6122712586  1.0312800609 -8.7348393458
 H  3.3051260976 -0.3107400843 -9.5936338084
 H  2.6518501943  1.3526066797 -9.2073866246
 H  5.4163466406  0.3243794721 -8.7020245486
 H  4.7540761448  1.9891210166 -8.2738499559
6
step 97
 C  3.4575688148  0.6559221669 -9.1908512367
 C  4.6110931879  1.0347136491 -8.7332412469
 H  3.3044235034 -0.3108039641 -9.5966494790
 H  2.6442680130  1.3541715409 -9.2063032004
 H  5.4219972648  0.3277603798 -8.6960233939
 H  4.7571817783  1.9921808338 -8.2671636329
6
step 98
 C  3.4583508791  0.6534812736 -9.1905149850
 C  4.6099510158  1.0380516259 -8.7314990471
 H  3.3028959214 -0.3131076726 -9.6007558807
 H  2.6350581219  1.3557019533 -9.2053949622
 H  5.4288927102  0.3315160035 -8.6899531530
 H  4.7609223896  1.9961035844 -8.2606605766
6
step 99
 C  3.4590636850  0.6513001845 -9.1901822771
 C  4.6089008382  1.0412726097 -8.7295926467
 H  3.3006693752 -0.3174906916 -9.6058441243
 H  2.6251072479  1.3564615858 -9.2046506601
 H  5.4364973056  0.3360226154 -8.6839092144
 H  4.7650761343  2.0006110005 -8.2545364148
6
step 100
 C  3.4596302852  0.6494110156 -9.1898667416
 C  4.6079971988  1.0443621852 -8.7275014262
 H  3.2979267195 -0.3235033190 -9.6116774301
 H  2.6152725547  1.3557762028 -9.2040555435
 H  5.4442732962  0.3416253886 -8.6779937452
 H  4.7694050726  2.0053820668 -8.2490033600
6
step 101
 C  3.4599844375  0.6478159255 -9.1895885786
 C  4.6072859654  1.0473126622 -8.7252071296
 H  3.2948961724 -0.3304777081 -9.6179189810
 H  2.6062953359  1.3531062704 -9.2035922960
 H  5.4517353748  0.3485942245 -8.6723105209
 H  4.7736651392  2.0100950350 -8.2442681204
6
step 102
 C  3.4600786578  0.6464920813 -9.1893703950
 C  4.6067982230  1.0501219852 -8.7226966583
 H  3.2918339721 -0.3376279564 -9.6241739783
 H  2.5987410783  1.3480935044 -9.2032416446
 H  5.4584945191  0.3570915095 -8.6669597316
 H  4.7776163661  2.0144671679 -8.2405105130
6
step 103
 C  3.4598902119  0.6453989038 -9.1892328042
 C  4.6065456316  1.0527921912 -8.7199644308
 H  3.2890046813 -0.3441563947 -9.6300363200
 H  2.5929618869  1.3405856156 -9.2029827658
 H  5.4642895968  0.3671524875 -8.6620333417
 H  4.7810324548  2.0182879882 -8.2378652495
6
step 104
 C  3.4594249979  0.6444855305 -9.1891905571
 C  4.6065175308  1.0553277904 -8.7170140614
 H  3.2866624924 -0.3493482382 -9.6351318002
 H  2.5890759886  1.3306447728 -9.2027935194
 H  5.4690066279  0.3786775343 -8.6576113886
 H  4.7837089714  2.0214434706 -8.2364084881
6
step 105
 C  3.4587192586  0.6436973545 -9.1892496562
 C  4.6066799771  1.0577343226 -8.7138591985
 H  3.2850357308 -0.3526455442 -9.6391532340
 H  2.5869611010  1.3185434157 -9.2026504786
 H  5.4726857051  0.3914355388 -8.6537594618
 H  4.7854696665  2.0239298868 -8.2361499955
6
step 106
 C  3.4578389406  0.6429814415 -9.1894056003
 C  4.6069768758  1.0600172009 -8.7105234293
 H  3.2843154045 -0.3536990140 -9.6418862481
 H  2.5862621455  1.3047478378 -9.2025287131
 H  5.4755148100  0.4050782590 -8.6505275160
 H  4.7861706135  2.0258566348 -8.2370313177
6
step 107