4
step 0
 O -0.6172224063 -0.0156350017 -0.0710762883
 C  0.5911261627  0.0149350106  0.0680535679
 H  1.0827441452 -0.1405369212  1.0412851077
 H  1.2825521089  0.2003369125 -0.7689623861
4
step 1
 O -0.6197690248 -0.0147097205 -0.0730083022
 C  0.5867657925  0.0195068211  0.0691036498
 H  1.0853406036 -0.1396262585  1.0392924808
 H  1.2868626392  0.1939291582 -0.7660878272
4
step 2
 O -0.6223519138 -0.0137719814 -0.0749553482
 C  0.5824340492  0.0240959562  0.0701525384
 H  1.0877205524 -0.1386307784  1.0373293746
 H  1.2909225394  0.1875551173 -0.7631317728
4
step 3
 O -0.6249855919 -0.0128168364 -0.0769161836
 C  0.5781945805  0.0286805169  0.0711904144
 H  1.0896481947 -0.1374654545  1.0354479790
 H  1.2944514820  0.1813033535 -0.7600467429
4
step 4
 O -0.6276830838 -0.0118393479 -0.0788894338
 C  0.5741055188  0.0332380869  0.0722083955
 H  1.0909013074 -0.1360451672  1.0337110404
 H  1.2971968321  0.1752692107 -0.7568092178
4
step 5
 O -0.6304549350 -0.0108347226 -0.0808735779
 C  0.5702156511  0.0377462298  0.0731991443
 H  1.0912816658 -0.1342877197  1.0321953107
 H  1.2989526366  0.1695544787 -0.7534306868
4
step 6
 O -0.6333083758 -0.0097983415 -0.0828668818
 C  0.5665612702  0.0421829083  0.0741572052
 H  1.0906239579 -0.1321160410  1.0309930169
 H  1.2995745900  0.1642653470 -0.7499642591
4
step 7
 O -0.6362466752 -0.0087257733 -0.0848673327
 C  0.5631638946  0.0465269211  0.0750791335
 H  1.0888026877 -0.1294599718  1.0302108332
 H  1.2989899585  0.1595092642 -0.7465062393
4
step 8
 O -0.6392687448 -0.0076127892 -0.0868725924
 C  0.5600290279  0.0507583424  0.0759634472
 H  1.0857366190 -0.1262575335  1.0299661471
 H  1.2972017765  0.1553910952 -0.7431925279
4
step 9
 O -0.6423690298 -0.0064553804 -0.0888799770
 C  0.5571460658  0.0548589270  0.0768104162
 H  1.0813904572 -0.1224556097  1.0303806480
 H  1.2942868918  0.1520089955 -0.7401899498
4
step 10
 O -0.6455376927 -0.0052497850 -0.0908864686
 C  0.5544893759  0.0588124610  0.0776216994
 H  1.0757736351 -0.1180100034  1.0315714971
 H  1.2903877057  0.1494503608 -0.7376828193
4
step 11
 O -0.6487610738 -0.0039925390 -0.0928887685
 C  0.5520204871  0.0626050617  0.0783998463
 H  1.0689363325 -0.1128848791  1.0336406508
 H  1.2856979086  0.1477881083 -0.7358553697
4
step 12
 O -0.6520223927 -0.0026805519 -0.0948833915
 C  0.5496912068  0.0662254212  0.0791476810
 H  1.0609632207 -0.1070517424  1.0366632610
 H  1.2804432547  0.1470775562 -0.7348712135
4
step 13
 O -0.6553026331 -0.0013111978 -0.0968667907
 C  0.5474473657  0.0696649878  0.0798676087
 H  1.0519657208 -0.1004882464  1.0406763724
 H  1.2748592450  0.1473541334 -0.7348516867
4
step 14
 O -0.6585815404  0.0001175863 -0.0988355040
 C  0.5452327945  0.0729180930  0.0805609259
 H  1.0420737096 -0.0931771487  1.0456693102
 H  1.2691683171  0.1486320394 -0.7358556031
4
step 15
 O -0.6618386605  0.0016072015 -0.1007863112
 C  0.5429931051  0.0759820420  0.0812272516
 H  1.0314276319 -0.0851057151  1.0515771575
 H  1.2635595751  0.1509038565 -0.7378633824
4
step 16
 O -0.6650543583  0.0031582899 -0.1027163947
 C  0.5406788755  0.0788571865  0.0818642106
 H  1.0201718342 -0.0762657568  1.0582785176
 H  1.2581739519  0.1541410254 -0.7407684194
4
step 17
 O -0.6682107611  0.0047706468 -0.1046234978
 C  0.5382479525  0.0815469893  0.0824674690
 H  1.0084496283 -0.0666543330  1.0655982973
 H  1.2530968534  0.1582950633 -0.7443777610
4
step 18
 O -0.6712925875  0.0064431564 -0.1065060649
 C  0.5356667425  0.0840580638  0.0830311525
 H  0.9964002431 -0.0562751043  1.0733155860
 H  1.2483589674  0.1632994730 -0.7484227250
4
step 19
 O -0.6742878455  0.0081737637 -0.1083633548
 C  0.5329105311  0.0864001746  0.0835485897
 H  0.9841576082 -0.0451402869  1.0811761017
 H  1.2439445469  0.1690722809 -0.7525784680
4
step 20
 O -0.6771884056  0.0099594683 -0.1101955307
 C  0.5299630173  0.0885862007  0.0840132709
 H  0.9718506879 -0.0332728037  1.0889082698
 H  1.2398053623  0.1755190014 -0.7564901173
4
step 21
 O -0.6799904352  0.0117963318 -0.1120037350
 C  0.5268153290  0.0906320355  0.0844198732
 H  0.9596046990 -0.0207081264  1.0962414455
 H  1.2358776465  0.1825359045 -0.7598021266
4
step 22
 O -0.6826945831  0.0136795515 -0.1137898312
 C  0.5234650561  0.0925565406  0.0847649573
 H  0.9475409967 -0.0074929420  1.1029212379
 H  1.2320961885  0.1900083926 -0.7621860810
4
step 23
 O -0.6853064009  0.0156034198 -0.1155572882
 C  0.5199143008  0.0943807947  0.0850483862
 H  0.9357823975  0.0063061762  1.1087361169
 H  1.2284185705  0.1978295565 -0.7633702598
4
step 24
 O -0.6878359540  0.0175613469 -0.1173101036
 C  0.5161695624  0.0961284335  0.0852729993
 H  0.9244477352  0.0206148481  1.1135202135
 H  1.2248256100  0.2058838156 -0.7631556721
4
step 25
 O -0.6902978541  0.0195462077 -0.1190536903
 C  0.5122399301  0.0978241726  0.0854454757
 H  0.9136560700  0.0353395976  1.1171743524
 H  1.2213391875  0.2140703302 -0.7614333166
4
step 26
 O -0.6927107892  0.0215500492 -0.1207939126
 C  0.5081374958  0.0994944827  0.0855756576
 H  0.9035203888  0.0503827426  1.1196634670
 H  1.2180162940  0.2222845999 -0.7581887966
4
step 27
 O -0.6950969601  0.0235646875 -0.1225377872
 C  0.5038762284  0.1011657200  0.0856767735
 H  0.8941474932  0.0656318606  1.1210244656
 H  1.2149538038  0.2304416660 -0.7535016923
4
step 28
 O -0.6974816411  0.0255813153 -0.1242925583
 C  0.4994726812  0.1028650293  0.0857643282
 H  0.8856329517  0.0809757493  1.1213592095
 H  1.2122782880  0.2384554963 -0.7475399491
4
step 29
 O -0.6998918399  0.0275911985 -0.1260662259
 C  0.4949456878  0.1046185079  0.0858558563
 H  0.8780548652  0.0962946427  1.1208259446
 H  1.2101346323  0.2462595578 -0.7405399917
4
step 30
 O -0.7023560454  0.0295853112 -0.1278666470
 C  0.4903173294  0.1064522491  0.0859694438
 H  0.8714713148  0.1114761647  1.1196285001
 H  1.2086729581  0.2537843162 -0.7327925776
4
step 31
 O -0.7049022814  0.0315550723 -0.1297019489
 C  0.4856130333  0.1083908465  0.0861232009
 H  0.8659110293  0.1264034916  1.1179955287
 H  1.2080256279  0.2609753813 -0.7246092667
4
step 32
 O -0.7075579713  0.0334920422 -0.1315796140
 C  0.4808626730  0.1104584683  0.0863336868
 H  0.8613725330  0.1409721549  1.1161662253
 H  1.2082924923  0.2677689829 -0.7163039523
4
step 33
 O -0.7103476196  0.0353885461 -0.1335068712
 C  0.4761002208  0.1126777994  0.0866155294
 H  0.8578156822  0.1550760246  1.1143657442
 H  1.2095163557  0.2741089652 -0.7081576053
4
step 34
 O -0.7132928598  0.0372375870 -0.1354896898
 C  0.4713645031  0.1150708514  0.0869801761
 H  0.8551629548  0.1686230406  1.1127910758
 H  1.2116731460  0.2799229897 -0.7004053068
4
step 35
 O -0.7164100174  0.0390331242 -0.1375332944
 C  0.4666971818  0.1176582023  0.0874361796
 H  0.8532962785  0.1815212169  1.1115938862
 H  1.2146602828  0.2851413102 -0.6932143389
4
step 36
 O -0.7197103982  0.0407703636 -0.1396409935
 C  0.4621425955  0.1204590967  0.0879884906
 H  0.8520609243  0.1936925604  1.1108718089
 H  1.2182991747  0.2896771102 -0.6866856713
4
step 37
 O -0.7231981883  0.0424455070 -0.1418149786
 C  0.4577435021  0.1234908657  0.0886395119
 H  0.8512714718  0.2050609118  1.1106678005
 H  1.2223466631  0.2934495479 -0.6808531850
4
step 38
 O -0.7268709732  0.0440565112 -0.1440549720
 C  0.4535399614  0.1267679983  0.0893885951
 H  0.8507181149  0.2155657303  1.1109698598
 H  1.2265103053  0.2963689505 -0.6756988500
4
step 39
 O -0.7307183711  0.0456022447 -0.1463593865
 C  0.4495639453  0.1303020133  0.0902334872
 H  0.8501804054  0.2251507432  1.1117261478
 H  1.2304772679  0.2983630166 -0.6711666527
4
step 40
 O -0.7347228633  0.0470837109 -0.1487238866
 C  0.4458380070  0.1340995338  0.0911694958
 H  0.8494353999  0.2337800280  1.1128517050
 H  1.2339353446  0.2993641460 -0.6671821834
4
step 41
 O -0.7388594950  0.0485025983 -0.1511428832
 C  0.4423709785  0.1381631722  0.0921909801
 H  0.8482736128  0.2414254829  1.1142503852
 H  1.2366037451  0.2993342872 -0.6636685590
4
step 42
 O -0.7430970285  0.0498629129 -0.1536081625
 C  0.4391572149  0.1424888833  0.0932900388
 H  0.8465077886  0.2480855431  1.1158244742
 H  1.2382519690  0.2982515860 -0.6605621062
4
step 43
 O -0.7473987730  0.0511695322 -0.1561102238
 C  0.4361752001  0.1470674704  0.0944576367
 H  0.8439842901  0.2537743672  1.1174917467
 H  1.2387186286  0.2961258925 -0.6578215186
4
step 44
 O -0.7517239814  0.0524285500 -0.1586381733
 C  0.4333881403  0.1518839925  0.0956832647
 H  0.8405893694  0.2585267949  1.1191940714
 H  1.2379207882  0.2929950148 -0.6554340012
4
step 45
 O -0.7560294305  0.0536471317 -0.1611800648
 C  0.4307454050  0.1569180454  0.0969549722
 H  0.8362536874  0.2623980535  1.1209039487
 H  1.2358578379  0.2889235967 -0.6534166804
4
step 46
 O -0.7602711336  0.0548333562 -0.1637232785
 C  0.4281850204  0.1621443022  0.0982594412
 H  0.8309535412  0.2654624705  1.1226264636
 H  1.2326081429  0.2840001717 -0.6518133447
4
step 47
 O -0.7644061131  0.0559960166 -0.1662549406
 C  0.4256370265  0.1675333121  0.0995821101
 H  0.8247090915  0.2678116184  1.1243969164
 H  1.2283191497  0.2783325136 -0.6506868598
4
step 48
 O -0.7683941283  0.0571443927 -0.1687623591
 C  0.4230275085  0.1730524944  0.1009073341
 H  0.8175797283  0.2695516216  1.1262743098
 H  1.2231914284  0.2720420880 -0.6501076398
4
step 49
 O -0.7721992782  0.0582880118 -0.1712334533
 C  0.4202830429  0.1786672316  0.1022185698
 H  0.8096570669  0.2707996803  1.1283313044
 H  1.2174579212  0.2652584478 -0.6501390212
4
step 50
 O -0.7757914143  0.0594364091 -0.1736571590
 C  0.4173352513  0.1843419565  0.1034985981
 H  0.8010562634  0.2716802278  1.1306416414
 H  1.2113604443  0.2581141952 -0.6508209974
4
step 51
 O -0.7791473168  0.0605988922 -0.1760237933
 C  0.4141251053  0.1900411393  0.1047298286
 H  0.7919064960  0.2723210871  1.1332664455
 H  1.2051261564  0.2507411075 -0.6521544289
4
step 52
 O -0.7822516037  0.0617843207 -0.1783253688
 C  0.4106066200  0.1957300977  0.1058947395
 H  0.7823415248  0.2728497193  1.1362411272
 H  1.1989470101  0.2432680455 -0.6540882897
4
step 53
 O -0.7850973297  0.0630008759 -0.1805558538
 C  0.4067496061  0.2013756469  0.1069765166
 H  0.7724910231  0.2733896067  1.1395646207
 H  1.1929647690  0.2358207390 -0.6565124652
4
step 54
 O -0.7876863123  0.0642557498 -0.1827114204
 C  0.4025411694  0.2069467152  0.1079599280
 H  0.7624740374  0.2740591188  1.1431932732
 H  1.1872645830  0.2285207456 -0.6592581714
4
step 55
 O -0.7900292623  0.0655549973 -0.1847905844
 C  0.3979859702  0.2124145837  0.1088322599
 H  0.7523951901  0.2749699195  1.1470403619
 H  1.1818775039  0.2214867051 -0.6621064662
4
step 56
 O -0.7921455857  0.0669034011 -0.1867942763
 C  0.3931053663  0.2177530949  0.1095843196
 H  0.7423424905  0.2762255825  1.1509806283
 H  1.1767895042  0.2148355751 -0.6648036476
4
step 57
 O -0.7940629234  0.0683043821 -0.1887258446
 C  0.3879355495  0.2229388252  0.1102113259
 H  0.7323873445  0.2779212383  1.1548602424
 H  1.1719560904  0.2086825552 -0.6670818427
4
step 58
 O -0.7958164365  0.0697599195 -0.1905909977
 C  0.3825249776  0.2279513207  0.1107135689
 H  0.7225862168  0.2801439344  1.1585107325
 H  1.1673195939  0.2031394010 -0.6686817660
4
step 59
 O -0.7974477073  0.0712700694 -0.1923978433
 C  0.3769307205  0.2327740770  0.1110967981
 H  0.7129857042  0.2829668040  1.1617688644
 H  1.1628299058  0.1983164468 -0.6693766718
4
step 60
 O -0.7990039684  0.0728342768 -0.1941561876
 C  0.3712173096  0.2373926760  0.1113719632
 H  0.7036189326  0.2864665849  1.1644817867
 H  1.1584493139  0.1943066356 -0.6689855704
4
step 61
 O -0.8005360524  0.0744498111 -0.1958778751
 C  0.3654507884  0.2417976689  0.1115549619
 H  0.6945180533  0.2906996168  1.1665374471
 H  1.1541782175  0.1912001071 -0.6673952812
4
step 62
 O -0.8020974389  0.0761134356 -0.1975757840
 C  0.3596985409  0.2459821602  0.1116656505
 H  0.6857078740  0.2957249724  1.1678618913
 H  1.1500484050  0.1890633615 -0.6645618903
4
step 63
 O -0.8037415493  0.0778201700 -0.1992640089
 C  0.3540235361  0.2499441496  0.1117269828
 H  0.6772161888  0.3015811513  1.1684415720
 H  1.1461384775  0.1879542188 -0.6605198686
4
step 64
 O -0.8055206446  0.0795648626 -0.2009566848
 C  0.3484847290  0.2536842167  0.1117634834
 H  0.6690667414  0.3083083520  1.1683139647
 H  1.1425588310  0.1879020257 -0.6553731256
4
step 65
 O -0.8074827225  0.0813412133 -0.2026681144
 C  0.3431322567  0.2572072312  0.1118002022
 H  0.6612853203  0.3159260091  1.1675766784
 H  1.1394538490  0.1889250191 -0.6492895780
4
step 66
 O -0.8096701716  0.0831428746 -0.2044116941
 C  0.3380078073  0.2605206425  0.1118610449
 H  0.6538937789  0.3244492905  1.1663734288
 H  1.1369824769  0.1910164773 -0.6424842058
4
step 67
 O -0.8121177703  0.0849636622 -0.2061994341
 C  0.3331433859  0.2636342296  0.1119674519
 H  0.6469086559  0.3338826619  1.1648840207
 H  1.1353029469  0.1941504940 -0.6352008327
4
step 68
 O -0.8148509676  0.0867977376 -0.2080414578
 C  0.3285609570  0.2665597079  0.1121372580
 H  0.6403378818  0.3442193549  1.1633086267
 H  1.1345534940  0.1982839573 -0.6276906642
4
step 69
 O -0.8178846277  0.0886398580 -0.2099455339
 C  0.3242728380  0.2693102423  0.1123838137
 H  0.6341769873  0.3554404635  1.1618488386
 H  1.1348320662  0.2033588996 -0.6201901945
4
step 70
 O -0.8212222415  0.0904855724 -0.2119167064
 C  0.3202825668  0.2719000524  0.1127155132
 H  0.6284053659  0.3675136943  1.1606874060
 H  1.1361777987  0.2093048930 -0.6129010673
4
step 71
 O -0.8248556610  0.0923313487 -0.2139570520
 C  0.3165860134  0.2743441577  0.1131357940
 H  0.6229832349  0.3803919071  1.1599689441
 H  1.1385572173  0.2160410620 -0.6059745151
4
step 72
 O -0.8287655552  0.0941747235 -0.2160652729
 C  0.3131724187  0.2766583831  0.1136432139
 H  0.6178518243  0.3940144420  1.1597850630
 H  1.1418594963  0.2234718821 -0.5995037368
4
step 73
 O -0.8329217009  0.0960140567 -0.2182376287
 C  0.3100254777  0.2788590542  0.1142334051
 H  0.6129282210  0.4082969286  1.1601613154
 H  1.1458937733  0.2315045508 -0.5935192551
4
step 74
 O -0.8372847802  0.0978486297 -0.2204669819
 C  0.3071235634  0.2809636527  0.1148987116
 H  0.6081140687  0.4231436171  1.1610567401
 H  1.1504065045  0.2400271530 -0.5879992483
4
step 75
 O -0.8418077390  0.0996785200 -0.2227439685
 C  0.3044402464  0.2829903845  0.1156302980
 H  0.6032957719  0.4384374736  1.1623676462
 H  1.1550965092  0.2489257845 -0.5828799077
4
step 76
 O -0.8464378252  0.1015044257 -0.2250571484
 C  0.3019440492  0.2849583991  0.1164187047
 H  0.5983528725  0.4540458598  1.1639407355
 H  1.1596414219  0.2580793836 -0.5780728763
4
step 77
 O -0.8511186294  0.1033275051 -0.2273935103
 C  0.2995983193  0.2868876828  0.1172545162
 H  0.5931653905  0.4698235195  1.1655904679
 H  1.1637235147  0.2673611197 -0.5734827207
4
step 78
 O -0.8557921889  0.1051491820 -0.2297390299
 C  0.2973611578  0.2887988097  0.1181287222
 H  0.5876218293  0.4856173264  1.1671200062
 H  1.1670550376  0.2766403642 -0.5690234906
4
step 79
 O -0.8604010209  0.1069709514 -0.2320792420
 C  0.2951856183  0.2907125534  0.1190328169
 H  0.5816265538  0.5012720645  1.1683425951
 H  1.1693998113  0.2857853060 -0.5646323952
4
step 80
 O -0.8648900127  0.1087941920 -0.2343997991
 C  0.2930202691  0.2926493986  0.1199587030
 H  0.5751059748  0.5166367803  1.1691012113
 H  1.1705895568  0.2946660057 -0.5602796033
4
step 81
 O -0.8692081093  0.1106199940 -0.2366869916
 C  0.2908101690  0.2946290074  0.1208984782
 H  0.5680130508  0.5315710698  1.1692846500
 H  1.1705339414  0.3031576375 -0.5559736452
4
step 82
 O -0.8733097657  0.1124490083 -0.2389282136
 C  0.2884982692  0.2966697012  0.1218441723
 H  0.5603299007  0.5459507530  1.1688388503
 H  1.1692239900  0.3111436272 -0.5517622864
4
step 83
 O -0.8771561574  0.1142813159 -0.2411123642
 C  0.2860272290  0.2987880202  0.1227874894
 H  0.5520684987  0.5596725402  1.1677727483
 H  1.1667288885  0.3185183621 -0.5477289510
4
step 84
 O -0.8807162408  0.1161164103 -0.2432304890
 C  0.2833422253  0.3009982315  0.1237200377
 H  0.5432672505  0.5726528641  1.1661569729
 H  1.1631829097  0.3251943989 -0.5439839435
4
step 85
 O -0.8839672111  0.1179528249 -0.2452751224
 C  0.2803915844  0.3033127127  0.1246318674
 H  0.5339951417  0.5848432246  1.1641226491
 H  1.1587813217  0.3310882181 -0.5406562041
4
step 86
 O -0.8868953653  0.1197883924 -0.2472417590
 C  0.2771320445  0.3057413713  0.1255132964
 H  0.5243380267  0.5962119727  1.1618439687
 H  1.1537455353  0.3361409120 -0.5378741945
4
step 87
 O -0.8894961973  0.1216200558 -0.2491277026
 C  0.2735292165  0.3082922716  0.1263532009
 H  0.5144027909  0.6067586285  1.1595292877
 H  1.1483155062  0.3402989904 -0.5357547809
4
step 88
 O -0.8917745654  0.1234438333 -0.2509334731
 C  0.2695623582  0.3109718527  0.1271413089
 H  0.5043020249  0.6164932849  1.1573947990
 H  1.1427114688  0.3435324531 -0.5343817766
4
step 89
 O -0.8937448587  0.1252550693 -0.2526615298
 C  0.2652251578  0.3137853057  0.1278669933
 H  0.4941559786  0.6254464022  1.1556489641
 H  1.1371260203  0.3458159929 -0.5337961126
4
step 90
 O -0.8954301969  0.1270480336 -0.2543175255
 C  0.2605281204  0.3167374285  0.1285218833
 H  0.4840796446  0.6336465597  1.1544676203
 H  1.1316966809  0.3471468138 -0.5339819900
4
step 91
 O -0.8968626915  0.1288166408 -0.2559089820
 C  0.2554994749  0.3198325078  0.1290994738
 H  0.4741805833  0.6411287070  1.1539745137
 H  1.1265022458  0.3475257536 -0.5348636204
4
step 92
 O -0.8980817814  0.1305536719 -0.2574462793
 C  0.2501832499  0.3230752194  0.1295972913
 H  0.4645554864  0.6479158854  1.1542348439
 H  1.1215635134  0.3469766132 -0.5363087162
4
step 93
 O -0.8991339166  0.1322515870 -0.2589415865
 C  0.2446390107  0.3264701469  0.1300171940
 H  0.4552850123  0.6540255212  1.1552417753
 H  1.1168472623  0.3455321647 -0.5381354048
4
step 94
 O -0.9000711765  0.1339026057 -0.2604086882
 C  0.2389389208  0.3300215519  0.1303660801
 H  0.4464328042  0.6594648363  1.1569199093
 H  1.1122808462  0.3432398229 -0.5401267918
4
step 95
 O -0.9009496048  0.1354988583 -0.2618625731
 C  0.2331639285  0.3337328995  0.1306560205
 H  0.4380458176  0.6642336301  1.1591351844
 H  1.1077712391  0.3401618373 -0.5420488972
4
step 96
 O -0.9018273109  0.1370326547 -0.2633188623
 C  0.2273994531  0.3376061404  0.1309037503
 H  0.4301557273  0.6683287284  1.1617109402
 H  1.1032251201  0.3363749675 -0.5436696858
4
step 97
 O -0.9027623206  0.1384968037 -0.2647931379
 C  0.2217307690  0.3416408815  0.1311295994
 H  0.4227811884  0.6717497531  1.1644480974
 H  1.0985676469  0.3319694163 -0.5447771407
4
step 98
 O -0.9038102445  0.1398849680 -0.2663001930
 C  0.2162383924  0.3458335425  0.1313559660
 H  0.4159305487  0.6745053127  1.1671468801
 H  1.0937578933  0.3270469209 -0.5451946522
4
step 99
 O -0.9050218743  0.1411920409 -0.2678532421
 C  0.2109937752  0.3501765831  0.1316054957
 H  0.4096046042  0.6766186789  1.1696275735
 H  1.0887995507  0.3217180736 -0.5447925534
4
step 100
 O -0.9064408444  0.1424145219 -0.2694631395
 C  0.2060555877  0.3546578796  0.1318991512
 H  0.4037990477  0.6781321811  1.1717482381
 H  1.0837461184  0.3160990644 -0.5434951520
4
step 101
 O -0.9081015158  0.1435508585 -0.2711376640
 C  0.2014668466  0.3592603112  0.1322543588
 H  0.3985063373  0.6791098041  1.1734178650
 H  1.0787003018  0.3103081040 -0.5412830198
4
step 102
 O -0.9100272455  0.1446017189 -0.2728809335
 C  0.1972531022  0.3639616114  0.1326833984
 H  0.3937168077  0.6796377310  1.1746040077
 H  1.0738077265  0.3044618145 -0.5381905939
4
step 103
 O -0.9122291956  0.1455701601 -0.2746930078
 C  0.1934218500  0.3687345139  0.1331921824
 H  0.3894189379  0.6798227697  1.1753343867
 H  1.0692454200  0.2986719210 -0.5342994019
4
step 104
 O -0.9147058019  0.1464616775 -0.2765697219
 C  0.1899632451  0.3735471856  0.1337795377
 H  0.3855987559  0.6797887123  1.1756923206
 H  1.0652058526  0.2930426478 -0.5297275109
4
step 105
 O -0.9174429467  0.1472841313 -0.2785027671
 C  0.1868520617  0.3783639289  0.1344370769
 H  0.3822383863  0.6796708058  1.1758061153
 H  1.0618777038  0.2876691114 -0.5246161074
4
step 106
 O -0.9204148123  0.1480475281 -0.2804800212
 C  0.1840506997  0.3831461550  0.1351497142
 H  0.3793138457  0.6796087481  1.1758329972
 H  1.0594250873  0.2826367101 -0.5191144749
4
step 107
 O -0.9235853564  0.1487636596 -0.2824861126
 C  0.1815129138  0.3878535993  0.1358968284
 H  0.3767924043  0.6797388078  1.1759389725
 H  1.0579676544  0.2780213941 -0.5133650769
4
step 108
 O -0.9269103007  0.1494456289 -0.2845031723
 C  0.1791878472  0.3924456977  0.1366539971
 H  0.3746299774  0.6801858133  1.1762767727
 H  1.0575643075  0.2738905754 -0.5074906939
4
step 109
 O -0.9303394772  0.1501073042 -0.2865117182
 C  0.1770239140  0.3968830372  0.1373951408
 H  0.3727690461  0.6810558522  1.1769646206
 H  1.0582029984  0.2703042366 -0.5015853818
4
step 110
 O -0.9338193593  0.1507627441 -0.2884916028
 C  0.1749721243  0.4011287885  0.1380948408
 H  0.3711376075  0.6824305236  1.1780688259
 H  1.0597983279  0.2673157239 -0.4957104404
4
step 111
 O -0.9372956030  0.1514256352 -0.2904229605
 C  0.1729885570  0.4051500263  0.1387305409
 H  0.3696495648  0.6843634391  1.1795929590
 H  1.0621974890  0.2649718108 -0.4898957101
4
step 112
 O -0.9407154382  0.1521087816 -0.2922870915
 C  0.1710358465  0.4089188465  0.1392843490
 H  0.3682067723  0.6868793717  1.1814754507
 H  1.0651937411  0.2633118522 -0.4841455565
4
step 113
 O -0.9440297741  0.1528236759 -0.2940672297
 C  0.1690837108  0.4124132045  0.1397442174
 H  0.3667026780  0.6899760686  1.1835960517
 H  1.0685454180  0.2623661382 -0.4784481200
4
step 114
 O -0.9471949193  0.1535801718 -0.2957491552
 C  0.1671086805  0.4156174200  0.1401044016
 H  0.3650272215  0.6936283516  1.1857900247
 H  1.0719977430  0.2621538036 -0.4727860131
4
step 115
 O -0.9501738538  0.1543862674 -0.2973216272
 C  0.1650932697  0.4185223288  0.1403652210
 H  0.3630724303  0.6977938221  1.1878676712
 H  1.0753045957  0.2626807798 -0.4671466791
4
step 116
 O -0.9529370394  0.1552479950 -0.2987766319
 C  0.1630248544  0.4211250967  0.1405322599
 H  0.3607380780  0.7024193393  1.1896361371
 H  1.0782477647  0.2639382512 -0.4615310039
4
step 117
 O -0.9554627273  0.1561693663 -0.3001094758
 C  0.1608945899  0.4234288150  0.1406152311
 H  0.3579362071  0.7074433453  1.1909209188
 H  1.0806504547  0.2659058538 -0.4559597576
4
step 118
 O -0.9577370969  0.1571524110 -0.3013187369
 C  0.1586961783  0.4254417821  0.1406266376
 H  0.3545965405  0.7128100919  1.1915832698
 H  1.0823904718  0.2685441070 -0.4504754753
4
step 119
 O -0.9597538989  0.1581974027 -0.3024060108
 C  0.1564252053  0.4271765747  0.1405804510
 H  0.3506689929  0.7184701817  1.1915334226
 H  1.0834029075  0.2717991585 -0.4451433639
4
step 120
 O -0.9615140004  0.1593028771 -0.3033757034
 C  0.1540787804  0.4286493611  0.1404910151
 H  0.3461253208  0.7243833014  1.1907383876
 H  1.0836793632  0.2756051080 -0.4400485698
4
step 121
 O -0.9630247888  0.1604657221 -0.3042347580
 C  0.1516555313  0.4298791510  0.1403721667
 H  0.3409594552  0.7305200340  1.1892238498
 H  1.0832624526  0.2798865546 -0.4352910564
4
step 122
 O -0.9642995208  0.1616812823 -0.3049923658
 C  0.1491559272  0.4308871074  0.1402366196
 H  0.3351867907  0.7368623310  1.1870708199
 H  1.0822365626  0.2845615064 -0.4309786718
4
step 123
 O -0.9653566499  0.1629434731 -0.3056596734
 C  0.1465828682  0.4316959636  0.1400956328
 H  0.3288425434  0.7434025886  1.1844075413
 H  1.0807156902  0.2895445436 -0.4272189479
4
step 124
 O -0.9662191529  0.1642449057 -0.3062494937
 C  0.1439424389  0.4323295705  0.1399589525
 H  0.3219793940  0.7501413700  1.1813974453
 H  1.0788294778  0.2947500172 -0.4241102843
4
step 125
 O -0.9669138687  0.1655769609 -0.3067759374
 C  0.1412447954  0.4328126501  0.1398350051
 H  0.3146638939  0.7570876365  1.1782220119
 H  1.0767084309  0.3000915728 -0.4217324072
4
step 126
 O -0.9674708109  0.1669300637 -0.3072542795
 C  0.1385046366  0.4331705327  0.1397312754
 H  0.3069748956  0.7642467897  1.1750683669
 H  1.0744709552  0.3054914006 -0.4201401887
4
step 127
 O -0.9679223810  0.1682938222 -0.3077005651
 C  0.1357415788  0.4334290427  0.1396548437
 H  0.2989994173  0.7716198380  1.1721099664
 H  1.0722119296  0.3108791945 -0.4193567195
4
step 128
 O -0.9683025854  0.1696572439 -0.3081312585
 C  0.1329801296  0.4336145090  0.1396129607
 H  0.2908294531  0.7791983782  1.1694905093
 H  1.0699946085  0.3161929898 -0.4193694590
4
step 129
 O -0.9686461478  0.1710089883 -0.3085628587
 C  0.1302490843  0.4337537364  0.1396135443
 H  0.2825591046  0.7869602652  1.1673110541
 H  1.0678470075  0.3213795172 -0.4201292979
4
step 130
 O -0.9689875439  0.1723376512 -0.3090114773
 C  0.1275803438  0.4338739074  0.1396654778
 H  0.2742822797  0.7948665449  1.1656218944
 H  1.0657630296  0.3263938837 -0.4215526734
4
step 131
 O -0.9693599710  0.1736320742 -0.3094923869
 C  0.1250071987  0.4340023540  0.1397786152
 H  0.2660910496  0.8028602391  1.1644202521
 H  1.0637080244  0.3311987342 -0.4235265308
4
step 132
 O -0.9697942820  0.1748816699 -0.3100195527
 C  0.1225622082  0.4341661613  0.1399634457
 H  0.2580746137  0.8108672984  1.1636540287
 H  1.0616278172  0.3357631108 -0.4259155803
4
step 133
 O -0.9703179334  0.1760767473 -0.3106051696
 C  0.1202748770  0.4343916068  0.1402304329
 H  0.2503187219  0.8187996961  1.1632309915
 H  1.0594598179  0.3400612248 -0.4285710508
4
step 134
 O -0.9709540070  0.1772088190 -0.3112592301
 C  0.1181693579  0.4347034667  0.1405891005
 H  0.2429053481  0.8265603376  1.1630320507
 H  1.0571446895  0.3440713145 -0.4313400312
4
step 135
 O -0.9717202983  0.1782709604 -0.3119891569
 C  0.1162626118  0.4351242240  0.1410470435
 H  0.2359114607  0.8340458156  1.1629259779
 H  1.0546345211  0.3477770005 -0.4340743483
4
step 136
 O -0.9726288631  0.1792578452 -0.3127995257
 C  0.1145623490  0.4356733191  0.1416087245
 H  0.2294108377  0.8411599634  1.1627881474
 H  1.0519078593  0.3511624672 -0.4366394482
4
step 137
 O -0.9736855236  0.1801659757 -0.3136918742
 C  0.1130663484  0.4363665131  0.1422746379
 H  0.2234718495  0.8478171461  1.1625128835
 H  1.0489717723  0.3542134173 -0.4389199207
4
step 138
 O -0.9748897750  0.1809937665 -0.3146646539
 C  0.1117621143  0.4372153238  0.1430405842
 H  0.2181566922  0.8539477994  1.1620258674
 H  1.0458648450  0.3569172045 -0.4408240861
4
step 139
 O -0.9762349673  0.1817415506 -0.3157133212
 C  0.1106273105  0.4382266748  0.1438972918
 H  0.2135199374  0.8595026867  1.1612921568
 H  1.0426560199  0.3592629096 -0.4422861369
4
step 140
 O -0.9777087784  0.1824115059 -0.3168305514
 C  0.1096308754  0.4394027883  0.1448303702
 H  0.2096068927  0.8644554511  1.1603199965
 H  1.0394401657  0.3612414398 -0.4432660450
4
step 141
 O -0.9792939334  0.1830075164 -0.3180065646
 C  0.1087347329  0.4407413252  0.1458206133
 H  0.2064518090  0.8688031727  1.1591601118
 H  1.0363306524  0.3628456991 -0.4437473561
4
step 142
 O -0.9809691199  0.1835349810 -0.3192295440
 C  0.1078959614  0.4422357604  0.1468446473
 H  0.2040760570  0.8725648662  1.1579005740
 H  1.0334496026  0.3640708398 -0.4437331807
4
step 143
 O -0.9827100377  0.1840005811 -0.3204861227
 C  0.1070692606  0.4438759718  0.1478759011
 H  0.2024863729  0.8757779932  1.1566575816
 H  1.0309166765  0.3649145878 -0.4432408558
4
step 144
 O -0.9844905171  0.1844120228 -0.3217619113
 C  0.1062095297  0.4456490037  0.1488858564
 H  0.2016732794  0.8784932526  1.1555628479
 H  1.0288374551  0.3653776309 -0.4422959142
4
step 145
 O -0.9862836455  0.1847777649 -0.3230420369
 C  0.1052743682  0.4475399478  0.1498455152
 H  0.2016097770  0.8807681246  1.1547486717
 H  1.0272926168  0.3654640455 -0.4409261157
4
step 146
 O -0.9880628482  0.1851067466 -0.3243116697
 C  0.1042263211  0.4495328699  0.1507269921
 H  0.2022503906  0.8826598633  1.1543321634
 H  1.0263290936  0.3651817302 -0.4391563316
4
step 147
 O -0.9898028825  0.1854081236 -0.3255565187
 C  0.1030347227  0.4516117010  0.1515051179
 H  0.2035306562  0.8842187987  1.1544004106
 H  1.0259542369  0.3645427935 -0.4370049882
4
step 148
 O -0.9914807167  0.1856910164 -0.3267632834
 C  0.1016770311  0.4537610171  0.1521589203
 H  0.2053671451  0.8854828775  1.1549984793
 H  1.0261337043  0.3635638162 -0.4344825629
4
step 149
 O -0.9930762735  0.1859642718 -0.3279200527
 C  0.1001395920  0.4559666450  0.1526728377
 H  0.2076581538  0.8864742722  1.1561219706
 H  1.0267933622  0.3622658975 -0.4315922987
4
step 150
 O -0.9945730213  0.1862362461 -0.3290166376
 C  0.0984178137  0.4582160403  0.1530375330
 H  0.2102851869  0.8871986049  1.1577153317
 H  1.0278250024  0.3606744301 -0.4283329515
4
step 151
 O -0.9959584103  0.1865146216 -0.3300448287
 C  0.0965157997  0.4604984142  0.1532502239
 H  0.2131153051  0.8876469148  1.1596762957
 H  1.0290951957  0.3588186145 -0.4247030913
4
step 152
 O -0.9972241529  0.1868062595 -0.3309985796
 C  0.0944455196  0.4628046255  0.1533145151
 H  0.2160043569  0.8878000673  1.1618659304
 H  1.0304562891  0.3567307435 -0.4207062738
4
step 153
 O -0.9983663549  0.1871170895 -0.3318741159
 C  0.0922256254  0.4651268921  0.1532397804
 H  0.2188010429  0.8876349318  1.1641229888
 H  1.0317584111  0.3544453086 -0.4163563120
4
step 154
 O -0.9993856079  0.1874519938 -0.3326701073
 C  0.0898799056  0.4674583986  0.1530402757
 H  0.2213526609  0.8871344764  1.1662817420
 H  1.0328634878  0.3519955094 -0.4116818375
4
step 155
 O -1.0002866434  0.1878148768 -0.3333873627
 C  0.0874360038  0.4697927954  0.1527337455
 H  0.2235082806  0.8862889671  1.1681871315
 H  1.0336517101  0.3494170163 -0.4067297101
4
step 156
 O -1.0010781139  0.1882085727 -0.3340288703
 C  0.0849237345  0.4721238820  0.1523402110
 H  0.2251250182  0.8851043317  1.1697114048
 H  1.0340317363  0.3467449424 -0.4015666118
4
step 157
 O -1.0017722194  0.1886348975 -0.3345996411
 C  0.0823736087  0.4744452028  0.1518806505