4
step 0
 O -0.6172224063 -0.0156350017 -0.0710762883
 C  0.5911261627  0.0149350106  0.0680535679
 H  1.0827441452 -0.1405369212  1.0412851077
 H  1.2825521089  0.2003369125 -0.7689623861
4
step 1
 O -0.6197683842 -0.0147099533 -0.0730078161
 C  0.5867668895  0.0195056709  0.0691033856
 H  1.0853399504 -0.1396264876  1.0392929821
 H  1.2868615547  0.1939307703 -0.7660885504
4
step 2
 O -0.6223506233 -0.0137724500 -0.0749543723
 C  0.5824362359  0.0240936515  0.0701520104
 H  1.0877193009 -0.1386312583  1.0373303699
 H  1.2909204347  0.1875583326 -0.7631332403
4
step 3
 O -0.6249836388 -0.0128175453 -0.0769147143
 C  0.5781978330  0.0286770589  0.0711896255
 H  1.0896464602 -0.1374662290  1.0354494476
 H  1.2944484954  0.1813081397 -0.7600489897
4
step 4
 O -0.6276804518 -0.0118403025 -0.0788874679
 C  0.5741097981  0.0332334828  0.0722073509
 H  1.0908992628 -0.1360463029  1.0337129460
 H  1.2971931700  0.1752755098 -0.7568122871
4
step 5
 O -0.6304516054 -0.0108359295 -0.0808711126
 C  0.5702209052  0.0377404924  0.0731978515
 H  1.0912795358 -0.1342893054  1.0321975968
 H  1.2989485637  0.1695622050 -0.7534346222
4
step 6
 O -0.6333043280 -0.0097998083 -0.0828639145
 C  0.5665674374  0.0421760562  0.0741556733
 H  1.0906220104 -0.1321181866  1.0309956034
 H  1.2995704133  0.1642743865 -0.7499690947
4
step 7
 O -0.6362418879 -0.0087275086 -0.0848638614
 C  0.5631709074  0.0465189782  0.0750773728
 H  1.0888012231 -0.1294628064  1.0302136118
 H  1.2989860087  0.1595194753 -0.7465119887
4
step 8
 O -0.6392631974 -0.0076148027 -0.0868686158
 C  0.5600368176  0.0507493377  0.0759614689
 H  1.0857359585 -0.1262612029  1.0299689788
 H  1.2971983871  0.1554023103 -0.7431991740
4
step 9
 O -0.6423627033 -0.0064576828 -0.0888754944
 C  0.5571545668  0.0548488939  0.0768082317
 H  1.0813909298 -0.1224602737  1.0303833613
 H  1.2942843775  0.1520210245 -0.7401974357
4
step 10
 O -0.6455305711 -0.0052523878 -0.0908814802
 C  0.5544985302  0.0588014366  0.0776193201
 H  1.0757755658 -0.1180158333  1.0315738897
 H  1.2903863417  0.1494629952 -0.7376910415
4
step 11
 O -0.6487531451 -0.0039954548 -0.0928832756
 C  0.5520302479  0.0625930863  0.0783972830
 H  1.0689400307 -0.1128920544  1.0336424933
 H  1.2856979131  0.1478011262 -0.7358641749
4
step 12
 O -0.6520136497 -0.0026837942 -0.0948773963
 C  0.5497015416  0.0662125376  0.0791449436
 H  1.0609689717 -0.1070604491  1.0366643045
 H  1.2804447763  0.1470907274 -0.7348804008
4
step 13
 O -0.6552930736 -0.0013147807 -0.0968602967
 C  0.5474582575  0.0696512405  0.0798647058
 H  1.0519737790 -0.1004986747  1.0406763595
 H  1.2748623568  0.1473672241 -0.7348610143
4
step 14
 O -0.6585711678  0.0001136478 -0.0988285159
 C  0.5452442428  0.0729035277  0.0805578648
 H  1.0420842948 -0.0931894919  1.0456679893
 H  1.2691730186  0.1486448168 -0.7358648029
4
step 15
 O -0.6618274834  0.0016028919 -0.1007788345
 C  0.5430051245  0.0759667050  0.0812240389
 H  1.0314409279 -0.0851201681  1.0515742982
 H  1.2635658011  0.1509160927 -0.7378721790
4
step 16
 O -0.6650423902  0.0031535934 -0.1027084363
 C  0.5406914941  0.0788411242  0.0818608521
 H  1.0201879896 -0.0762825150  1.0582739280
 H  1.2581815886  0.1541525002 -0.7407765544
4
step 17
 O -0.6681980200  0.0047655475 -0.1046150649
 C  0.5382612094  0.0815302473  0.0824639708
 H  1.0084687580 -0.0666735909  1.0655918395
 H  1.2531057568  0.1583055664 -0.7443850177
4
step 18
 O -0.6712790948  0.0064376385 -0.1064971658
 C  0.5356806846  0.0840406866  0.0830275210
 H  0.9964224305 -0.0562970536  1.0733071894
 H  1.2483689832  0.1633088065 -0.7484289525
4
step 19
 O -0.6742736252  0.0081678117 -0.1083539978
 C  0.5329252105  0.0863822046  0.0835448325
 H  0.9841829072 -0.0451651137  1.0811657715
 H  1.2439555283  0.1690802606 -0.7525835992
4
step 20
 O -0.6771734833  0.0099530675 -0.1101857243
 C  0.5299784885  0.0885676778  0.0840093969
 H  0.9718791243 -0.0333006853  1.0888960910
 H  1.2398171831  0.1755254593 -0.7564941804
4
step 21
 O -0.6799748371  0.0117894685 -0.1119934875
 C  0.5268316467  0.0906129957  0.0844158929
 H  0.9596362704 -0.0207392277  1.0962275806
 H  1.2358902089  0.1825406904 -0.7598052483
4
step 22
 O -0.6826783346  0.0136722131 -0.1137791503
 C  0.5234822735  0.0925370157  0.0847608820
 H  0.9475756733 -0.0075274117  1.1029059205
 H  1.2321094261  0.1900113775 -0.7621884813
4
step 23
 O -0.6852895258  0.0155955953 -0.1155461808
 C  0.5199324686  0.0943608110  0.0850442281
 H  0.9358201202  0.0062682102  1.1087196370
 H  1.2284324444  0.1978306322 -0.7633722385
4
step 24
 O -0.6878184729  0.0175530272 -0.1172985753
 C  0.5161887273  0.0961080113  0.0852687705
 H  0.9244884163  0.0205732807  1.1135029030
 H  1.2248401039  0.2058828983 -0.7631575918
4
step 25
 O -0.6902797838  0.0195373855 -0.1190417452
 C  0.5122601347  0.0978033257  0.0854411880
 H  0.9136995918  0.0352943501  1.1171565644
 H  1.2213542972  0.2140673591 -0.7614355797
4
step 26
 O -0.6926921412  0.0215407197 -0.1207815528
 C  0.5081587777  0.0994732176  0.0855713210
 H  0.9035666050  0.0503337628  1.1196455566
 H  1.2180320178  0.2222795406 -0.7581918211
4
step 27
 O -0.6950777401  0.0235548481 -0.1225250129
 C  0.5038986204  0.1011440361  0.0856723963
 H  0.8941962301  0.0655791248  1.1210067682
 H  1.2149701299  0.2304345069 -0.7535058863
4
step 28
 O -0.6974618483  0.0255709658 -0.1242793673
 C  0.4994962104  0.1028429187  0.0857599156
 H  0.8856840107  0.0809192598  1.1213420215
 H  1.2122951830  0.2384462503 -0.7475456864
4
step 29
 O -0.6998714664  0.0275803417 -0.1260526133
 C  0.4949703762  0.1045959554  0.0858514102
 H  0.8781080268  0.0962344278  1.1208095068
 H  1.2101520319  0.2462482584 -0.7405475899
4
step 30
 O -0.7023350758  0.0295739523 -0.1278526056
 C  0.4903431932  0.1064292328  0.0859649619
 H  0.8715263438  0.1114122747  1.1196129840
 H  1.2086907590  0.2537710183 -0.7328022798
4
step 31
 O -0.7048806933  0.0315432191 -0.1296874685
 C  0.4856400829  0.1083673379  0.0861186768
 H  0.8659676818  0.1263359989  1.1179810289
 H  1.2080436862  0.2609601570 -0.7246212311
4
step 32
 O -0.7075357354  0.0334797052 -0.1315646820
 C  0.4808909126  0.1104344329  0.0863291098
 H  0.8614305638  0.1409011492  1.1161527573
 H  1.2083106260  0.2677519236 -0.7163182469
4
step 33
 O -0.7103247004  0.0353757380 -0.1334914727
 C  0.4761296477  0.1126531970  0.0866108843
 H  0.8578748549  0.1550016140  1.1143532492
 H  1.2095343555  0.2740901792 -0.7081742131
4
step 34
 O -0.7132692170  0.0372243225 -0.1354738078
 C  0.4713951069  0.1150456361  0.0869754444
 H  0.8552230509  0.1685453484  1.1127794309
 H  1.2116907903  0.2799026065 -0.7004241364
4
step 35
 O -0.7163856068  0.0390194198 -0.1375169102
 C  0.4667289437  0.1176323231  0.0874313395
 H  0.8533571079  0.1814403840  1.1115829205
 H  1.2146773597  0.2851194804 -0.6932352421
4
step 36
 O -0.7196851735  0.0407562371 -0.1396240874
 C  0.4621754877  0.1204324974  0.0879835181
 H  0.8521223349  0.1936087443  1.1108613224
 H  1.2183155042  0.2896540103 -0.6867084617
4
step 37
 O -0.7231721031  0.0424309772 -0.1417975302
 C  0.4577774878  0.1234634853  0.0886343815
 H  0.8513333573  0.2049742892  1.1106575828
 H  1.2223621183  0.2934253801 -0.6808776582
4
step 38
 O -0.7268439824  0.0440415972 -0.1440369610
 C  0.4535749956  0.1267397718  0.0893832805
 H  0.8507804206  0.2154764960  1.1109597092
 H  1.2265248294  0.2963439451 -0.6757247994
4
step 39
 O -0.7306904339  0.0455869656 -0.1463407935
 C  0.4495999767  0.1302728719  0.0902279621
 H  0.8502431302  0.2250591114  1.1117158848
 H  1.2304908835  0.2983374278 -0.6711938823
4
step 40
 O -0.7346939442  0.0470680853 -0.1487046938
 C  0.4458749799  0.1340694070  0.0911637349
 H  0.8494985966  0.2336862285  1.1128411828
 H  1.2339481565  0.2993382502 -0.6672105155
4
step 41
 O -0.7388295662  0.0484866435 -0.1511230749
 C  0.4424088368  0.1381319883  0.0921849597
 H  0.8483373835  0.2413297594  1.1142394933
 H  1.2366159344  0.2993083746 -0.6636978379
4
step 42
 O -0.7430660711  0.0498466447 -0.1535877260
 C  0.4391959050  0.1424565721  0.0932837379
 H  0.8465722779  0.2479881458  1.1158131393
 H  1.2382637815  0.2982259551 -0.6605921988
4
step 43
 O -0.7473667783  0.0511529645 -0.1560891499
 C  0.4362146750  0.1470339643  0.0944510378
 H  0.8440496763  0.2536755467  1.1174799280
 H  1.2387303577  0.2961008410 -0.6578523123
4
step 44
 O -0.7516909516  0.0524116941 -0.1586164568
 C  0.4334283631  0.1518492289  0.0956763548
 H  0.8406558536  0.2584267947  1.1191817533
 H  1.2379327550  0.2929708310 -0.6554654003
4
step 45
 O -0.7559953789  0.0536299963 -0.1611577044
 C  0.4307863518  0.1568819679  0.0969477436
 H  0.8363214824  0.2622971022  1.1208911317
 H  1.2358703696  0.2889005521 -0.6534486014
4
step 46
 O -0.7602360847  0.0548159471 -0.1637002777
 C  0.4282266828  0.1621068627  0.0982518919
 H  0.8310228607  0.2653607744  1.1226131545
 H  1.2326215513  0.2839785139 -0.6518457112
4
step 47
 O -0.7643701014  0.0559783364 -0.1662313069
 C  0.4256794132  0.1674944717  0.0995742442
 H  0.8247801397  0.2677093548  1.1243831191
 H  1.2283337116  0.2783124612 -0.6507195975
4
step 48
 O -0.7683571977  0.0571264407 -0.1687381043
 C  0.4230706458  0.1730122244  0.1008991622
 H  0.8176526911  0.2694489341  1.1262600179
 H  1.2232073695  0.2720238268 -0.6501406728
4
step 49
 O -0.7721614803  0.0582697843 -0.1712085932
 C  0.4203269744  0.1786255140  0.1022101083
 H  0.8097321058  0.2706966753  1.1283164956
 H  1.2174754050  0.2652421287 -0.6501722703
4
step 50
 O -0.7757528069  0.0594178990 -0.1736317128
 C  0.4173800363  0.1842987840  0.1034898695
 H  0.8011335107  0.2715769736  1.1306262765
 H  1.2113795675  0.2580999330 -0.6508543809
4
step 51
 O -0.7791079618  0.0605800897 -0.1759977832
 C  0.4141708164  0.1899965150  0.1047208605
 H  0.7919860527  0.2722176145  1.1332504708
 H  1.2051469512  0.2507289806 -0.6521878673
4
step 52
 O -0.7822115655  0.0617652130 -0.1782988193
 C  0.4106533395  0.1956840349  0.1058855640
 H  0.7824234616  0.2727460243  1.1362244805
 H  1.1989694533  0.2432580958 -0.6541217137
4
step 53
 O -0.7850566728  0.0629814480 -0.1805287909
 C  0.4067974223  0.2013281681  0.1069671696
 H  0.7725753821  0.2732856548  1.1395472413
 H  1.1929887960  0.2358129708 -0.6565458258
4
step 54
 O -0.7876450994  0.0642359846 -0.1826838711
 C  0.4025901715  0.2068978511  0.1079504478
 H  0.7625608360  0.2739548496  1.1431751130
 H  1.1872901040  0.2285151239 -0.6592914511
4
step 55
 O -0.7899875525  0.0655348764 -0.1847625757
 C  0.3980362450  0.2123643726  0.1088226864
 H  0.7524844249  0.2748652517  1.1470213970
 H  1.1819044203  0.2214831543 -0.6621396885
4
step 56
 O -0.7921034323  0.0668829050 -0.1867658344
 C  0.3931569931  0.2177015817  0.1095746924
 H  0.7424341416  0.2761204182  1.1509608690
 H  1.1768177218  0.2148339767 -0.6648368837
4
step 57
 O -0.7940203722  0.0682834909 -0.1886969939
 C  0.3879885975  0.2228860602  0.1102016833
 H  0.7324813795  0.2778154672  1.1548397402
 H  1.1719855290  0.2086827467 -0.6671152138
4
step 58
 O -0.7957735242  0.0697386135 -0.1905617602
 C  0.3825795027  0.2278973589  0.1107039459
 H  0.7226825944  0.2800374363  1.1584895828
 H  1.1673501911  0.2031411765 -0.6687154407
4
step 59
 O -0.7974044599  0.0712483299 -0.1923682377
 C  0.3769867631  0.2327189764  0.1110872254
 H  0.7130843761  0.2828594517  1.1617472031
 H  1.1628616158  0.1983195582 -0.6694108587
4
step 60
 O -0.7989603999  0.0728120863 -0.1941262287
 C  0.3712748930  0.2373364969  0.1113624654
 H  0.7037198466  0.2863582427  1.1644597870
 H  1.1584821048  0.1943107995 -0.6690205088
4
step 61
 O -0.8004921640  0.0744271540 -0.1958475729
 C  0.3655099187  0.2417404722  0.1115455567
 H  0.6946211541  0.2905901428  1.1665153071
 H  1.1542120616  0.1912050092 -0.6674312268
4
step 62
 O -0.8020532184  0.0760902987 -0.1975451433
 C  0.3597592064  0.2459240062  0.1116563478
 H  0.6858131051  0.2956142157  1.1678398236
 H  1.1500832709  0.1890686673 -0.6645991028
4
step 63
 O -0.8036969708  0.0777965429 -0.1992330290
 C  0.3540857080  0.2498850968  0.1117177841
 H  0.6773234931  0.3014689534  1.1684197871
 H  1.1461743181  0.1879595812 -0.6605585954
4
step 64
 O -0.8054756691  0.0795407380 -0.2009253594
 C  0.3485483631  0.2536243207  0.1117543819
 H  0.6691760624  0.3081945432  1.1682926588
 H  1.1425955747  0.1879070976 -0.6554135898
4
step 65
 O -0.8074372988  0.0813165870 -0.2026364315
 C  0.3431972950  0.2571465433  0.1117911829
 H  0.6613966032  0.3158104103  1.1675560177
 H  1.1394913900  0.1889294612 -0.6493319654
4
step 66
 O -0.8096242380  0.0831177455 -0.2043796365
 C  0.3380741810  0.2604592096  0.1118520853
 H  0.6540069719  0.3243317114  1.1663535391
 H  1.1370206697  0.1910199684 -0.6425286558
4
step 67
 O -0.8120712570  0.0849380322 -0.2061669800
 C  0.3332110180  0.2635720935  0.1119585233
 H  0.6470237119  0.3337629008  1.1648649792
 H  1.1353416047  0.1941527382 -0.6352474328
4
step 68
 O -0.8148037989  0.0867716112 -0.2080085816
 C  0.3286297655  0.2664969053  0.1121283263
 H  0.6404547605  0.3440972004  1.1632904586
 H  1.1345923921  0.1982846898 -0.6277394479
4
step 69
 O -0.8178367255  0.0886132415 -0.2099122073
 C  0.3243427392  0.2692468051  0.1123748411
 H  0.6342956573  0.3553156967  1.1618315188
 H  1.1348709508  0.2033578893 -0.6202411442
4
step 70
 O -0.8211735284  0.0904584739 -0.2118828998
 C  0.3203534780  0.2718360079  0.1127064598
 H  0.6285258073  0.3673860929  1.1606708665
 H  1.1362164021  0.2093019429 -0.6129541212
4
step 71
 O -0.8248060637  0.0923037771 -0.2139227354
 C  0.3166578555  0.2742795292  0.1131266194
 H  0.6231054419  0.3802612516  1.1599530867
 H  1.1385952777  0.2160360080 -0.6060295773
4
step 72
 O -0.8287150073  0.0941466877 -0.2160304177
 C  0.3132451181  0.2765931904  0.1136338786
 H  0.6179758068  0.3938805217  1.1597697757
 H  1.1418967791  0.2234645926 -0.5995606898
4
step 73
 O -0.8328701461  0.0959855654 -0.2182022086
 C  0.3100989679  0.2787933139  0.1142238716
 H  0.6130540072  0.4081595528  1.1601464916
 H  1.1459300947  0.2314949203 -0.5935779715
4
step 74
 O -0.8372321741  0.0978196906 -0.2204309743
 C  0.3071977862  0.2808973784  0.1148889451
 H  0.6082417049  0.4230026222  1.1610422975
 H  1.1504417488  0.2400151036 -0.5880596025
4
step 75
 O -0.8417540509  0.0996491395 -0.2227073555
 C  0.3045151533  0.2829235864  0.1156202674
 H  0.6034253219  0.4382927339  1.1623535425
 H  1.1551306425  0.2489112637 -0.5829417827
4
step 76
 O -0.8463830386  0.1014746085 -0.2250199173
 C  0.3020196017  0.2848910842  0.1164083826
 H  0.5984844156  0.4538972953  1.1639269791
 H  1.1596744975  0.2580623641 -0.5781361689
4
step 77
 O -0.8510627429  0.1032972538 -0.2273556544
 C  0.2996744901  0.2868198546  0.1172438795
 H  0.5932990178  0.4696711023  1.1655771226
 H  1.1637556709  0.2673416008 -0.5735473424
4
step 78
 O -0.8557352155  0.1051184972 -0.2297005484
 C  0.2974379314  0.2887304674  0.1181177524
 H  0.5877576392  0.4854610833  1.1671071899
 H  1.1670864882  0.2766183733 -0.5690893660
4
step 79
 O -0.8603429871  0.1069398319 -0.2320401402
 C  0.2952629918  0.2906436924  0.1190215005
 H  0.5817646468  0.5011120775  1.1683304715
 H  1.1694308309  0.2857609009 -0.5646994593
4
step 80
 O -0.8648309575  0.1087626345 -0.2343600881
 C  0.2930982524  0.2925800099  0.1199470318
 H  0.5752464488  0.5164731823  1.1690899781
 H  1.1706204610  0.2946392754 -0.5603477965
4
step 81
 O -0.8691480826  0.1105879937 -0.2366466879
 C  0.2908887852  0.2945590782  0.1208864496
 H  0.5681559959  0.5314040376  1.1692745225
 H  1.1705650652  0.3031287035 -0.5560429082
4
step 82
 O -0.8732488267  0.1124165590 -0.2388873387
 C  0.2885775545  0.2965992149  0.1218317897
 H  0.5604753957  0.5457804982  1.1688300438
 H  1.1692556656  0.3111126431 -0.5518325555
4
step 83
 O -0.8770943724  0.1142484105 -0.2410709435
 C  0.2861072324  0.2987169574  0.1227747624
 H  0.5522166076  0.5594992969  1.1677654598
 H  1.1667614232  0.3184855125 -0.5478001531
4
step 84
 O -0.8806536817  0.1160830410 -0.2431885513
 C  0.2834230078  0.3009265706  0.1237069821
 H  0.5434180216  0.5724768779  1.1661513639
 H  1.1632165680  0.3251598959 -0.5440559921
4
step 85
 O -0.8839039532  0.1179189838 -0.2452326990
 C  0.2804732181  0.3032404303  0.1246185054
 H  0.5341486042  0.5846647367  1.1641188299
 H  1.1588163076  0.3310523005 -0.5407289972
4
step 86
 O -0.8868314858  0.1197540718 -0.2471988828
 C  0.2772146109  0.3056684434  0.1254996560
 H  0.5244941919  0.5960312105  1.1618419866
 H  1.1537819849  0.3361038387 -0.5379476141
4
step 87
 O -0.8894317728  0.1215852487 -0.2490844070
 C  0.2736128041  0.3082186741  0.1263393158
 H  0.5145616505  0.6065757931  1.1595291191
 H  1.1483534824  0.3402610378 -0.5358286949
4
step 88
 O -0.8917096706  0.1234085340 -0.2508897914
 C  0.2696470598  0.3108975619  0.1271272178
 H  0.5044635524  0.6163085477  1.1573963472
 H  1.1427509683  0.3434939072 -0.5344560440
4
step 89
 O -0.8936795644  0.1252192737 -0.2526174938
 C  0.2653110671  0.3137102982  0.1278527389
 H  0.4943201286  0.6252598987  1.1556520630
 H  1.1371669830  0.3457771454 -0.5338705916
4
step 90
 O -0.8953645683  0.1270117396 -0.2542731648
 C  0.2606153282  0.3166616811  0.1285075107
 H  0.4842463543  0.6334583949  1.1544720440
 H  1.1317390093  0.3471079530 -0.5340565476
4
step 91
 O -0.8967967864  0.1287798489 -0.2558643230
 C  0.2555880645  0.3197559973  0.1290850294
 H  0.4743497719  0.6409389591  1.1539799925
 H  1.1265458256  0.3474871607 -0.5349381451
4
step 92
 O -0.8980156486  0.1305163853 -0.2574013442
 C  0.2502732935  0.3229979215  0.1295828208
 H  0.4647270563  0.6477246168  1.1542410823
 H  1.1216082343  0.3469385521 -0.5363831279
4
step 93
 O -0.8990675946  0.1322138124 -0.2588963925
 C  0.2447305658  0.3263920357  0.1300027400
 H  0.4554588494  0.6538327891  1.1552484733
 H  1.1168930371  0.3454948778 -0.5382096655
4
step 94
 O -0.9000046920  0.1338643532 -0.2603632468
 C  0.2390320267  0.3299425990  0.1303516802
 H  0.4466087791  0.6592707045  1.1569267839
 H  1.1123276247  0.3432035240 -0.5402009118
4
step 95
 O -0.9008829715  0.1354601416 -0.2618168892
 C  0.2332586042  0.3336530736  0.1306417051
 H  0.4382237867  0.6640381792  1.1591419868
 H  1.1078190153  0.3401267066 -0.5421229382
4
step 96
 O -0.9017605292  0.1369934914 -0.2632729345
 C  0.2274956963  0.3375254067  0.1308895411
 H  0.4303355352  0.6681320623  1.1617174691
 H  1.1032739325  0.3363411471 -0.5437437604
4
step 97
 O -0.9026953771  0.1384572151 -0.2647469576
 C  0.2218285558  0.3415592024  0.1311155080
 H  0.4229626704  0.6715520014  1.1644542064
 H  1.0986175722  0.3319370081 -0.5448514078
4
step 98
 O -0.9037431125  0.1398449788 -0.2662537451
 C  0.2163376785  0.3457508778  0.1313419937
 H  0.4161135344  0.6743066293  1.1671524793
 H  1.0938090353  0.3270159849 -0.5452693102
4
step 99
 O -0.9049545150  0.1411516788 -0.2678065055
 C  0.2110944978  0.3500928915  0.1315916335
 H  0.4097889217  0.6764192354  1.1696326254
 H  1.0888520254  0.3216886291 -0.5448678312
4
step 100
 O -0.9063732081  0.1423738169 -0.2694160881
 C  0.2061576691  0.3545731199  0.1318853811
 H  0.4039845281  0.6779321583  1.1717527495
 H  1.0838000373  0.3160710923 -0.5435712988
4
step 101
 O -0.9080335448  0.1435098421 -0.2710902678
 C  0.2015701975  0.3591744444  0.1322406556
 H  0.3986928197  0.6789093805  1.1734218761
 H  1.0787557549  0.3102815510 -0.5413602939
4
step 102
 O -0.9099588763  0.1445604232 -0.2728331601
 C  0.1973576267  0.3638746027  0.1326697317
 H  0.3939041440  0.6794370704  1.1746075779
 H  1.0738647669  0.3044365985 -0.5382692523
4
step 103
 O -0.9121603626  0.1455286163 -0.2746448244
 C  0.1935274502  0.3686463345  0.1331785194
 H  0.3896069972  0.6796220092  1.1753375809
 H  1.0693040505  0.2986479371 -0.5343796897
4
step 104
 O -0.9146364405  0.1464199153 -0.2765210973
 C  0.1900698255  0.3734578154  0.1337658460
 H  0.3857874285  0.6795879515  1.1756951959
 H  1.0652660174  0.2930197742 -0.5298096523
4
step 105
 O -0.9173729964  0.1472421770 -0.2784536729
 C  0.1869595337  0.3782733577  0.1344233271
 H  0.3824275868  0.6794700990  1.1758087088
 H  1.0619392853  0.2876472157 -0.5247002981
4
step 106
 O -0.9203442194  0.1480054043 -0.2804304342
 C  0.1841589845  0.3830543846  0.1351358823
 H  0.3795035151  0.6794080994  1.1758353186
 H  1.0594879091  0.2826156538 -0.5192008771
4
step 107
 O -0.9235140769  0.1487213839 -0.2824360153
 C  0.1816219447  0.3877606439  0.1358828980
 H  0.3769825111  0.6795381709  1.1759410001
 H  1.0580314913  0.2780010356 -0.5134538163
4
step 108
 O -0.9268383016  0.1494032133 -0.2844525548
 C  0.1792975702  0.3923515850  0.1366399599
 H  0.3748205173  0.6799850954  1.1762784561
 H  1.0576289009  0.2738707711 -0.5075818594
4
step 109
 O -0.9302667377  0.1500647550 -0.2864605781
 C  0.1771342882  0.3967878075  0.1373809972
 H  0.3729600414  0.6808549223  1.1769658888
 H  1.0582680762  0.2702848405 -0.5016790274
4
step 110
 O -0.9337458712  0.1507200617 -0.2884399455
 C  0.1750831203  0.4010324945  0.1380805992
 H  0.3713291049  0.6822292245  1.1780695999
 H  1.0598636261  0.2672965858 -0.4958065878
4
step 111
 O -0.9372213703  0.1513828142 -0.2903707993
 C  0.1731001555  0.4050527312  0.1387162164
 H  0.3698416323  0.6841616006  1.1795931685
 H  1.0622627728  0.2649527741 -0.4899943525
4
step 112
 O -0.9406404763  0.1520658117 -0.2922344467
 C  0.1711480363  0.4088206223  0.1392699614
 H  0.3683994964  0.6866768250  1.1814750511
 H  1.0652588219  0.2632927522 -0.4842466613
4
step 113
 O -0.9439541087  0.1527805420 -0.2940141278
 C  0.1691964868  0.4123141299  0.1397297894
 H  0.3668961597  0.6897726591  1.1835950393
 H  1.0686101655  0.2623468019 -0.4785516322
4
step 114
 O -0.9471185848  0.1535368549 -0.2956956279
 C  0.1672220418  0.4155175781  0.1400899565
 H  0.3652215724  0.6934239489  1.1857884475
 H  1.0720620911  0.2621340512 -0.4728918561
4
step 115
 O -0.9500968916  0.1543427457 -0.2972677104
 C  0.1652072185  0.4184218046  0.1403507808
 H  0.3632677693  0.6975883267  1.1878656344
 H  1.0753685415  0.2626604278 -0.4672547567
4
step 116
 O -0.9528594962  0.1552042446 -0.2987223643
 C  0.1631393950  0.4210239752  0.1405178442
 H  0.3609345277  0.7022126849  1.1896338022
 H  1.0783113623  0.2639171173 -0.4616412011
4
step 117
 O -0.9553846535  0.1561253618 -0.3000548978
 C  0.1610097280  0.4233271790  0.1406008562
 H  0.3581338916  0.7072354988  1.1909184967
 H  1.0807138053  0.2658837619 -0.4560719408
4
step 118
 O -0.9576585448  0.1571081267 -0.3012638892
 C  0.1588119208  0.4253397108  0.1406123159
 H  0.3547955827  0.7126010479  1.1915810101
 H  1.0824537089  0.2685208946 -0.4505894942
4
step 119
 O -0.9596749217  0.1581528133 -0.3023509337
 C  0.1565415600  0.4270741424  0.1405661909
 H  0.3508695129  0.7182599557  1.1915316000
 H  1.0834661823  0.2717746833 -0.4452590530
4
step 120
 O -0.9614346502  0.1592579581 -0.3033204355
 C  0.1541957562  0.4285466363  0.1404768218
 H  0.3463274349  0.7241719213  1.1907372858
 H  1.0837428285  0.2755792537 -0.4401657498
4
step 121
 O -0.9629451161  0.1604204505 -0.3041793357
 C  0.1517731382  0.4297761955  0.1403580418
 H  0.3411632749  0.7303075313  1.1892237461
 H  1.0833262488  0.2798592351 -0.4354095363
4
step 122
 O -0.9642195730  0.1616356375 -0.3049368222
 C  0.1492741760  0.4307839761  0.1402225622
 H  0.3353924223  0.7366487323  1.1870719702
 H  1.0823008053  0.2845326690 -0.4310982510
4
step 123
 O -0.9652764709  0.1628974374 -0.3056040377
 C  0.1467017703  0.4315927044  0.1400816392
 H  0.3290500871  0.7431879073  1.1844101673
 H  1.0807804610  0.2895141700 -0.4273394186
4
step 124
 O -0.9661387817  0.1641984642 -0.3061937905
 C  0.1440620057  0.4322262238  0.1399450171
 H  0.3221889428  0.7499256004  1.1814017244
 H  1.0788948193  0.2947181231 -0.4242314344
4
step 125
 O -0.9668333393  0.1655301027 -0.3067201864
 C  0.1413650377  0.4327092492  0.1398211201
 H  0.3148755325  0.7568707490  1.1782280719
 H  1.0767743458  0.3000582060 -0.4218540243
4
step 126
 O -0.9673901511  0.1668827818 -0.3071984952
 C  0.1386255632  0.4330671037  0.1397174309
 H  0.3071886983  0.7640287311  1.1750762823
 H  1.0745374098  0.3054566357 -0.4202620629
4
step 127
 O -0.9678416124  0.1682461141 -0.3076447557
 C  0.1358631957  0.4333256042  0.1396410274
 H  0.2992154449  0.7714005334  1.1721197602
 H  1.0722788614  0.3108431272 -0.4194786474
4
step 128
 O -0.9682217226  0.1696091115 -0.3080754266
 C  0.1331024386  0.4335110722  0.1395991575
 H  0.2910477501  0.7789777364  1.1695021586
 H  1.0700619370  0.3161557308 -0.4194912485
4
step 129
 O -0.9685651986  0.1709604384 -0.3085070006
 C  0.1303720817  0.4336503050  0.1395997356
 H  0.2827796955  0.7867381869  1.1673244994
 H  1.0679146467  0.3213411854 -0.4202507726
4
step 130
 O -0.9689065091  0.1722886953 -0.3089555834
 C  0.1277040197  0.4337704772  0.1396516413
 H  0.2745051651  0.7946429328  1.1656370509
 H  1.0658309006  0.3263545999 -0.4216736774
4
step 131
 O -0.9692788444  0.1735827282 -0.3094364418
 C  0.1251315362  0.4338989128  0.1397647244
 H  0.2663162024  0.8026350089  1.1644370211
 H  1.0637760669  0.3311586160 -0.4236469325
4
step 132
 O -0.9697130512  0.1748319540 -0.3099635356
 C  0.1226871840  0.4340626889  0.1399494698
 H  0.2583019760  0.8106403891  1.1636723089
 H  1.0616959978  0.3357222682 -0.4260352762
4
step 133
 O -0.9702365802  0.1760266856 -0.3105490553
 C  0.1204004614  0.4342880750  0.1402163375
 H  0.2505482029  0.8185710788  1.1632506868
 H  1.0595281349  0.3400197573 -0.4286899681
4
step 134
 O -0.9708725085  0.1771584388 -0.3112029897
 C  0.1182955162  0.4345998401  0.1405748484
 H  0.2431368232  0.8263300211  1.1630530761
 H  1.0572131739  0.3440293097 -0.4314581291
4
step 135
 O -0.9716386283  0.1782202914 -0.3119327586
 C  0.1163893060  0.4350204609  0.1410325957
 H  0.2361447724  0.8338138498  1.1629482602
 H  1.0547032345  0.3477345331 -0.4341916185
4
step 136
 O -0.9725469932  0.1792069189 -0.3127429365
 C  0.1146895399  0.4355693723  0.1415940420
 H  0.2296457980  0.8409264363  1.1628116242
 H  1.0519768866  0.3511196003 -0.4367559144
4
step 137
 O -0.9736034247  0.1801148241 -0.3136350607
 C  0.1131939976  0.4362623320  0.1422596839
 H  0.2237082442  0.8475821793  1.1625374987
 H  1.0490412135  0.3541702040 -0.4390356375
4
step 138
 O -0.9748074186  0.1809424218 -0.3146075839
 C  0.1118901867  0.4371108556  0.1430253258
 H  0.2183942869  0.8537115397  1.1620515650
 H  1.0459348049  0.3568736897 -0.4409391367
4
step 139
 O -0.9761523271  0.1816900439 -0.3156559649
 C  0.1107557759  0.4381218668  0.1438817021
 H  0.2137584845  0.8592652963  1.1613188740
 H  1.0427265982  0.3592191325 -0.4424006296
4
step 140
 O -0.9776258315  0.1823598664 -0.3167728825
 C  0.1097597107  0.4392975898  0.1448144301
 H  0.2098461391  0.8642170963  1.1603476562
 H  1.0395114471  0.3611974358 -0.4433801099
4
step 141
 O -0.9792106611  0.1829557707 -0.3179485612
 C  0.1088639229  0.4406356889  0.1458043130
 H  0.2066915047  0.8685640127  1.1591886160
 H  1.0364026983  0.3628015022 -0.4438611404
4
step 142
 O -0.9808855087  0.1834831526 -0.3191711895
 C  0.1080254999  0.4421296444  0.1468279877
 H  0.2043159624  0.8723250426  1.1579297986
 H  1.0335224458  0.3640264839 -0.4438468446
4
step 143
 O -0.9826260795  0.1839486898 -0.3204274065
 C  0.1071991504  0.4437693408  0.1478588937
 H  0.2027262666  0.8755376221  1.1566873732
 H  1.0309903177  0.3648701080 -0.4433545679
4
step 144
 O -0.9844062093  0.1843600844 -0.3217028286
 C  0.1063397823  0.4455418296  0.1488685241
 H  0.2019129637  0.8782524191  1.1555930237
 H  1.0289118644  0.3653330638 -0.4424098475
4
step 145
 O -0.9861989913  0.1847257909 -0.3229825893
 C  0.1054050028  0.4474322107  0.1498278916
 H  0.2018490825  0.8805268817  1.1547790220
 H  1.0273677368  0.3654194291 -0.4410404443
4
step 146
 O -0.9879778558  0.1850547441 -0.3242518650
 C  0.1043573635  0.4494245575  0.1507091203
 H  0.2024891790  0.8824182341  1.1543624583
 H  1.0264048471  0.3651371032 -0.4392712272
4
step 147
 O -0.9897175649  0.1853560955 -0.3254963702
 C  0.1031662033  0.4515028084  0.1514870494
 H  0.2037688215  0.8839767831  1.1544304099
 H  1.0260305357  0.3644981933 -0.4371206182
4
step 148
 O -0.9913950909  0.1856389617 -0.3267028097
 C  0.1018089839  0.4536515460  0.1521407129
 H  0.2056046132  0.8852404616  1.1550279446
 H  1.0262104602  0.3635192779 -0.4345990884
4
step 149
 O -0.9929903596  0.1859121855 -0.3278592770
 C  0.1002720518  0.4558566023  0.1526545532
 H  0.2078948816  0.8862314403  1.1561506797
 H  1.0268704974  0.3622214516 -0.4317098725
4
step 150
 O -0.9944868422  0.1861841197 -0.3289555867
 C  0.0985508152  0.4581054369  0.1530192351
 H  0.2105211604  0.8869553509  1.1577430925
 H  1.0279024587  0.3606301011 -0.4284517167
4
step 151
 O -0.9958719902  0.1864624437 -0.3299835325
 C  0.0966493752  0.4603872636  0.1532319755
 H  0.2133505378  0.8874032532  1.1597029588
 H  1.0291729422  0.3587744201 -0.4248231794
4
step 152
 O -0.9971375165  0.1867540163 -0.3309370697
 C  0.0945796979  0.4626929425  0.1532963762
 H  0.2162388884  0.8875560404  1.1618913988
 H  1.0305343264  0.3566866939 -0.4208278026
4
step 153
 O -0.9982795268  0.1870647651 -0.3318124250
 C  0.0923604305  0.4650146919  0.1532218065
 H  0.2190349379  0.8873906134  1.1641472233
 H  1.0318367725  0.3544014068 -0.4164793838
4
step 154
 O -0.9992986115  0.1873995710 -0.3326082682
 C  0.0900153555  0.4673456955  0.1530225158
 H  0.2215860083  0.8868899706  1.1663047624
 H  1.0329422362  0.3519517533 -0.4118065370
4
step 155
 O -1.0001995001  0.1877623376 -0.3333254072
 C  0.0875721105  0.4696796031  0.1527162411
 H  0.2237411940  0.8860444037  1.1682090131
 H  1.0337309339  0.3493733996 -0.4068561021
4
step 156
 O -1.0009908427  0.1881558988 -0.3339668286
 C  0.0850605030  0.4720102128  0.1523229956
 H  0.2253576360  0.8848598581  1.1697322718
 H  1.0341115417  0.3467014573 -0.4016947397
4
step 157
 O -1.0016848357  0.1885820708 -0.3345375407
 C  0.0825110370  0.4743310678  0.1518637490