2
step 0
 H  0.1438850079  0.0000000000  0.0000000000
 H  0.8561149966  0.0000000000  0.0000000000
2
step 1
 H  0.1492850154 -0.0097086489 -0.0076096448
 H  0.8507149891  0.0097086489  0.0076096448
2
step 2
 H  0.1531837295 -0.0192970958 -0.0151250752
 H  0.8468162750  0.0192970958  0.0151250752
2
step 3
 H  0.1546783011 -0.0288591080 -0.0226197861
 H  0.8453217033  0.0288591080  0.0226197861
2
step 4
 H  0.1536931043 -0.0384711919 -0.0301537432
 H  0.8463069001  0.0384711919  0.0301537432
2
step 5
 H  0.1509892281 -0.0481212098 -0.0377174330
 H  0.8490107764  0.0481212098  0.0377174330
2
step 6
 H  0.1478576722 -0.0576819298 -0.0452111311
 H  0.8521423322  0.0576819298  0.0452111311
2
step 7
 H  0.1456807810 -0.0669428504 -0.0524698462
 H  0.8543192235  0.0669428504  0.0524698462
2
step 8
 H  0.1455611990 -0.0756763354 -0.0593151569
 H  0.8544388054  0.0756763354  0.0593151569
2
step 9
 H  0.1481018265 -0.0837073376 -0.0656098613
 H  0.8518981780  0.0837073376  0.0656098613
2
step 10
 H  0.1533225741 -0.0909697604 -0.0713021526
 H  0.8466774304  0.0909697604  0.0713021526
2
step 11
 H  0.1606775732 -0.0975434783 -0.0764546366
 H  0.8393224312  0.0975434783  0.0764546366
2
step 12
 H  0.1691611891 -0.1036654020 -0.0812530041
 H  0.8308388154  0.1036654020  0.0812530041
2
step 13
 H  0.1775172228 -0.1097006018 -0.0859833973
 H  0.8224827817  0.1097006018  0.0859833973
2
step 14
 H  0.1845546241 -0.1160583913 -0.0909666365
 H  0.8154453804  0.1160583913  0.0909666365
2
step 15
 H  0.1895057573 -0.1230592583 -0.0964539202
 H  0.8104942472  0.1230592583  0.0964539202
2
step 16
 H  0.1922800905 -0.1308008514 -0.1025217856
 H  0.8077199139  0.1308008514  0.1025217856
2
step 17
 H  0.1934716337 -0.1390964951 -0.1090239161
 H  0.8065283707  0.1390964951  0.1090239161
2
step 18
 H  0.1941156839 -0.1475254870 -0.1156305649
 H  0.8058843205  0.1475254870  0.1156305649
2
step 19
 H  0.1953363492 -0.1555649946 -0.1219319358
 H  0.8046636553  0.1555649946  0.1219319358
2
step 20
 H  0.1980427972 -0.1627380552 -0.1275541850
 H  0.8019572073  0.1627380552  0.1275541850
2
step 21
 H  0.2027461561 -0.1687304219 -0.1322510056
 H  0.7972538484  0.1687304219  0.1322510056
2
step 22
 H  0.2094905986 -0.1734625135 -0.1359600218
 H  0.7905094059  0.1734625135  0.1359600218
2
step 23
 H  0.2178700936 -0.1771186088 -0.1388256715
 H  0.7821299109  0.1771186088  0.1388256715
2
step 24
 H  0.2271179169 -0.1801309962 -0.1411867826
 H  0.7728820875  0.1801309962  0.1411867826
2
step 25
 H  0.2362741936 -0.1831057870 -0.1435184254
 H  0.7637258109  0.1831057870  0.1435184254
2
step 26
 H  0.2444285214 -0.1866787314 -0.1463189013
 H  0.7555714830  0.1866787314  0.1463189013
2
step 27
 H  0.2509877853 -0.1913203092 -0.1499569728
 H  0.7490122192  0.1913203092  0.1499569728
2
step 28
 H  0.2558632215 -0.1971609246 -0.1545348506
 H  0.7441367829  0.1971609246  0.1545348506
2
step 29
 H  0.2594768971 -0.2039281867 -0.1598390347
 H  0.7405231074  0.2039281867  0.1598390347
2
step 30
 H  0.2625845831 -0.2110347008 -0.1654091247
 H  0.7374154214  0.2110347008  0.1654091247
2
step 31
 H  0.2660160654 -0.2177662529 -0.1706853192
 H  0.7339839390  0.2177662529  0.1706853192
2
step 32
 H  0.2704487100 -0.2234814698 -0.1751649097
 H  0.7295512945  0.2234814698  0.1751649097
2
step 33
 H  0.2762701534 -0.2277625215 -0.1785204006
 H  0.7237298511  0.2277625215  0.1785204006
2
step 34
 H  0.2835278955 -0.2305014592 -0.1806671816
 H  0.7164721090  0.2305014592  0.1806671816
2
step 35
 H  0.2919447477 -0.2319278212 -0.1817851650
 H  0.7080552568  0.2319278212  0.1817851650
2
step 36
 H  0.3009880750 -0.2325783472 -0.1822950477
 H  0.6990119295  0.2325783472  0.1822950477
2
step 37
 H  0.3099925261 -0.2331971533 -0.1827800682
 H  0.6900074784  0.2331971533  0.1827800682
2
step 38
 H  0.3183302856 -0.2345572942 -0.1838461475
 H  0.6816697188  0.2345572942  0.1838461475
2
step 39
 H  0.3255926026 -0.2372297500 -0.1859408199
 H  0.6744074019  0.2372297500  0.1859408199
2
step 40
 H  0.3317120650 -0.2413818417 -0.1891952319
 H  0.6682879395  0.2413818417  0.1891952319
2
step 41
 H  0.3369622580 -0.2467076620 -0.1933696130
 H  0.6630377464  0.2467076620  0.1933696130
2
step 42
 H  0.3418362062 -0.2525316345 -0.1979344462
 H  0.6581637983  0.2525316345  0.1979344462
2
step 43
 H  0.3468725385 -0.2580270860 -0.2022417843
 H  0.6531274660  0.2580270860  0.2022417843
2
step 44
 H  0.3525068286 -0.2624477191 -0.2057066792
 H  0.6474931759  0.2624477191  0.2057066792
2
step 45
 H  0.3589850281 -0.2653016550 -0.2079435959
 H  0.6410149764  0.2653016550  0.2079435959
2
step 46
 H  0.3663366426 -0.2664494986 -0.2088432764
 H  0.6336633619  0.2664494986  0.2088432764
2
step 47
 H  0.3743920442 -0.2661333720 -0.2085954961
 H  0.6256079603  0.2661333720  0.2085954961
2
step 48
 H  0.3828332818 -0.2649400189 -0.2076601453
 H  0.6171667227  0.2649400189  0.2076601453
2
step 49
 H  0.3912744227 -0.2636879590 -0.2066787800
 H  0.6087255818  0.2636879590  0.2066787800
2
step 50
 H  0.3993637326 -0.2632310990 -0.2063206928
 H  0.6006362719  0.2632310990  0.2063206928
2
step 51
 H  0.4068834444 -0.2642075608 -0.2070860442
 H  0.5931165601  0.2642075608  0.2070860442
2
step 52
 H  0.4138073003 -0.2668206467 -0.2091341824
 H  0.5861927041  0.2668206467  0.2091341824
2
step 53
 H  0.4202860850 -0.2707607288 -0.2122224212
 H  0.5797139195  0.2707607288  0.2122224212
2
step 54
 H  0.4265707402 -0.2753130810 -0.2157905576
 H  0.5734292643  0.2753130810  0.2157905576
2
step 55
 H  0.4329170330 -0.2795913235 -0.2191438466
 H  0.5670829715  0.2795913235  0.2191438466
2
step 56
 H  0.4395139881 -0.2827870776 -0.2216486805
 H  0.5604860164  0.2827870776  0.2216486805
2
step 57
 H  0.4464518453 -0.2843585537 -0.2228804045
 H  0.5535481592  0.2843585537  0.2228804045
2
step 58
 H  0.4537235777 -0.2841366795 -0.2227064993
 H  0.5462764268  0.2841366795  0.2227064993
2
step 59
 H  0.4612480250 -0.2823563860 -0.2213111042
 H  0.5387519795  0.2823563860  0.2213111042
2
step 60
 H  0.4689055730 -0.2796180323 -0.2191647810
 H  0.5310944315  0.2796180323  0.2191647810
2
step 61
 H  0.4765796287 -0.2767703607 -0.2169327743
 H  0.5234203758  0.2767703607  0.2169327743
2
step 62
 H  0.4841945436 -0.2747077724 -0.2153161163
 H  0.5158054609  0.2747077724  0.2153161163
2
step 63
 H  0.4917357571 -0.2741104422 -0.2148479286
 H  0.5082642473  0.2741104422  0.2148479286
2
step 64
 H  0.4992399432 -0.2752148925 -0.2157135973
 H  0.5007600612  0.2752148925  0.2157135973
2
step 65
 H  0.5067584009 -0.2777270692 -0.2176826430
 H  0.4932416036  0.2777270692  0.2176826430
2
step 66
 H  0.5143157044 -0.2809272426 -0.2201909408
 H  0.4856843001  0.2809272426  0.2201909408
2
step 67
 H  0.5218879890 -0.2839074576 -0.2225268351
 H  0.4781120155  0.2839074576  0.2225268351
2
step 68
 H  0.5294093246 -0.2858286857 -0.2240326948
 H  0.4705906799  0.2858286857  0.2240326948
2
step 69
 H  0.5367984820 -0.2861161410 -0.2242580024
 H  0.4632015225  0.2861161410  0.2242580024
2
step 70
 H  0.5439938451 -0.2845697201 -0.2230459168
 H  0.4560061594  0.2845697201  0.2230459168
2
step 71
 H  0.5509871596 -0.2813982085 -0.2205600841
 H  0.4490128449  0.2813982085  0.2205600841
2
step 72
 H  0.5578488660 -0.2771841098 -0.2172570711
 H  0.4421511385  0.2771841098  0.2172570711
2
step 73
 H  0.5647355766 -0.2727712739 -0.2137982876
 H  0.4352644279  0.2727712739  0.2137982876
2
step 74
 H  0.5718671295 -0.2690662954 -0.2108943233
 H  0.4281328750  0.2690662954  0.2108943233
2
step 75
 H  0.5794655002 -0.2667779541 -0.2091007200
 H  0.4205345043  0.2667779541  0.2091007200
2
step 76
 H  0.5876682053 -0.2661792837 -0.2086314818
 H  0.4123317992  0.2661792837  0.2086314818
2
step 77
 H  0.5964550250 -0.2670072768 -0.2092804633
 H  0.4035449795  0.2670072768  0.2092804633
2
step 78
 H  0.6056303600 -0.2685570587 -0.2104951832
 H  0.3943696445  0.2685570587  0.2104951832
2
step 79
 H  0.6148722771 -0.2699155766 -0.2115599904
 H  0.3851277274  0.2699155766  0.2115599904
2
step 80
 H  0.6238225184 -0.2702199951 -0.2117985938
 H  0.3761774861  0.2702199951  0.2117985938
2
step 81
 H  0.6321820503 -0.2688558368 -0.2107293657
 H  0.3678179542  0.2688558368  0.2107293657
2
step 82
 H  0.6397906766 -0.2655712969 -0.2081549413
 H  0.3602093279  0.2655712969  0.2081549413
2
step 83
 H  0.6466837640 -0.2605183042 -0.2041944027
 H  0.3533162405  0.2605183042  0.2041944027
2
step 84
 H  0.6531208289 -0.2542287879 -0.1992646761
 H  0.3468791756  0.2542287879  0.1992646761
2
step 85
 H  0.6595710091 -0.2475166341 -0.1940036858
 H  0.3404289954  0.2475166341  0.1940036858
2
step 86
 H  0.6666311472 -0.2412894133 -0.1891227865
 H  0.3333688573  0.2412894133  0.1891227865
2
step 87
 H  0.6748638915 -0.2362847652 -0.1852001403
 H  0.3251361130  0.2362847652  0.1852001403
2
step 88
 H  0.6845911039 -0.2328141229 -0.1824798488
 H  0.3154089006  0.2328141229  0.1824798488
2
step 89
 H  0.6957361298 -0.2306417842 -0.1807771684
 H  0.3042638747  0.2306417842  0.1807771684
2
step 90
 H  0.7078079137 -0.2290724807 -0.1795471474
 H  0.2921920908  0.2290724807  0.1795471474
2
step 91
 H  0.7200372212 -0.2271925760 -0.1780736769
 H  0.2799627833  0.2271925760  0.1780736769
2
step 92
 H  0.7315902043 -0.2241362979 -0.1756781644
 H  0.2684098001  0.2241362979  0.1756781644
2
step 93
 H  0.7417742867 -0.2192826747 -0.1718738916
 H  0.2582257177  0.2192826747  0.1718738916
2
step 94
 H  0.7501952347 -0.2123613538 -0.1664489561
 H  0.2498047698  0.2123613538  0.1664489561
2
step 95
 H  0.7568613208 -0.2034844255 -0.1594912144
 H  0.2431386837  0.2034844255  0.1594912144
2
step 96
 H  0.7622331090 -0.1931180704 -0.1513660591
 H  0.2377668955  0.1931180704  0.1513660591
2
step 97
 H  0.7671930371 -0.1819872045 -0.1426416798
 H  0.2328069674  0.1819872045  0.1426416798
2
step 98
 H  0.7728837447 -0.1708979301 -0.1339498999
 H  0.2271162598  0.1708979301  0.1339498999
2
step 99
 H  0.7803830161 -0.1604935863 -0.1257949690
 H  0.2196169884  0.1604935863  0.1257949690
2
step 100
 H  0.7902860858 -0.1510303875 -0.1183777081
 H  0.2097139186  0.1510303875  0.1183777081
2
step 101
 H  0.8023991311 -0.1423000594 -0.1115348717
 H  0.1976008734  0.1423000594  0.1115348717
2
step 102
 H  0.8157421405 -0.1337536044 -0.1048361552
 H  0.1842578640  0.1337536044  0.1048361552
2
step 103
 H  0.8288583913 -0.1247400895 -0.0977713567
 H  0.1711416131  0.1247400895  0.0977713567
2
step 104
 H  0.8402410103 -0.1147209529 -0.0899183515
 H  0.1597589942  0.1147209529  0.0899183515
2
step 105
 H  0.8486940923 -0.1033859264 -0.0810339509
 H  0.1513059121  0.1033859264  0.0810339509
2
step 106
 H  0.8535653051 -0.0906769355 -0.0710726363
 H  0.1464346993  0.0906769355  0.0710726363
2
step 107
 H  0.8548688461 -0.0767540432 -0.0601598650
 H  0.1451311584  0.0767540432  0.0601598650
2
step 108
 H  0.8533199115 -0.0619265232 -0.0485380459
 H  0.1466800929  0.0619265232  0.0485380459
2
step 109
 H  0.8502561675 -0.0465566282 -0.0364911130
 H  0.1497438370  0.0465566282  0.0364911130
2
step 110
 H  0.8473775712 -0.0309457078 -0.0242552643
 H  0.1526224333  0.0309457078  0.0242552643
2
step 111
 H  0.8462622113 -0.0152384240 -0.0119438859
 H  0.1537377932  0.0152384240  0.0119438859
2
step 112
 H  0.8477720411  0.0005930787  0.0004648554
 H  0.1522279634 -0.0005930787 -0.0004648554
2
step 113
 H  0.8516585474  0.0166525950  0.0130523139
 H  0.1483414571 -0.0166525950 -0.0130523139
2
step 114
 H  0.8566422278  0.0329701438  0.0258420184
 H  0.1433577767 -0.0329701438 -0.0258420184
2
step 115
 H  0.8609058554  0.0494084381  0.0387263633
 H  0.1390941491 -0.0494084381 -0.0387263633
2
step 116
 H  0.8626801040  0.0656755779  0.0514765572
 H  0.1373199005 -0.0656755779 -0.0514765572
2
step 117
 H  0.8606666096  0.0814114463  0.0638103403
 H  0.1393333949 -0.0814114463 -0.0638103403
2
step 118
 H  0.8542491502  0.0962957570  0.0754766719
 H  0.1457508543 -0.0962957570 -0.0754766719
2
step 119
 H  0.8435547266  0.1101497510  0.0863354407
 H  0.1564452779 -0.1101497510 -0.0863354407
2
step 120
 H  0.8294178325  0.1230222292  0.0964248969
 H  0.1705821720 -0.1230222292 -0.0964248969
2
step 121
 H  0.8132428874  0.1352443059  0.1060045679
 H  0.1867571171 -0.1352443059 -0.1060045679
2
step 122
 H  0.7967151320  0.1474112139  0.1155409976
 H  0.2032848725 -0.1474112139 -0.1155409976
2
step 123
 H  0.7813402087  0.1602325931  0.1255904023
 H  0.2186597957 -0.1602325931 -0.1255904023
2
step 124
 H  0.7679362035  0.1742412191  0.1365703718
 H  0.2320638010 -0.1742412191 -0.1365703718
2
step 125
 H  0.7563573198  0.1894825690  0.1485165509
 H  0.2436426847 -0.1894825690 -0.1485165509
2
step 126
 H  0.7456516745  0.2053936601  0.1609876736
 H  0.2543483300 -0.2053936601 -0.1609876736
2
step 127
 H  0.7345348391  0.2209612293  0.1731895437
 H  0.2654651654 -0.2209612293 -0.1731895437
2
step 128
 H  0.7218648706  0.2350405736  0.1842249422
 H  0.2781351339 -0.2350405736 -0.1842249422
2
step 129
 H  0.7069194055  0.2466589501  0.1933314326
 H  0.2930805990 -0.2466589501 -0.1933314326
2
step 130
 H  0.6894735737  0.2552204113  0.2000419111
 H  0.3105264308 -0.2552204113 -0.2000419111
2
step 131
 H  0.6697583898  0.2606190554  0.2042733715
 H  0.3302416147 -0.2606190554 -0.2042733715
2
step 132
 H  0.6483584490  0.2632866358  0.2063642226
 H  0.3516415555 -0.2632866358 -0.2063642226
2
step 133
 H  0.6260642997  0.2641685361  0.2070554566
 H  0.3739357048 -0.2641685361 -0.2070554566
2
step 134
 H  0.6036765669  0.2645779544  0.2073763589
 H  0.3963234376 -0.2645779544 -0.2073763589
2
step 135
 H  0.5817873245  0.2658716660  0.2083903708
 H  0.4182126799 -0.2658716660 -0.2083903708
2
step 136
 H  0.5606276467  0.2689837982  0.2108296619
 H  0.4393723577 -0.2689837982 -0.2108296619
2
step 137
 H  0.5400891896  0.2740283137  0.2147835562
 H  0.4599108149 -0.2740283137 -0.2147835562
2
step 138
 H  0.5199198899  0.2802366486  0.2196496528
 H  0.4800801146 -0.2802366486 -0.2196496528
2
step 139
 H  0.4999491556  0.2862774066  0.2243844025
 H  0.5000508489 -0.2862774066 -0.2243844025
2
step 140
 H  0.4801992141  0.2907332444  0.2278768909
 H  0.5198007903 -0.2907332444 -0.2278768909
2
step 141
 H  0.4608622767  0.2924883853  0.2292525713
 H  0.5391377278 -0.2924883853 -0.2292525713
2
step 142
 H  0.4422041799  0.2909411755  0.2280398674
 H  0.5577958246 -0.2909411755 -0.2280398674
2
step 143
 H  0.4244506246  0.2860777917  0.2242279443
 H  0.5755493798 -0.2860777917 -0.2242279443
2
step 144
 H  0.4076819604  0.2784593452  0.2182566013
 H  0.5923180441 -0.2784593452 -0.2182566013
2
step 145
 H  0.3917516287  0.2691343184  0.2109476398
 H  0.6082483758 -0.2691343184 -0.2109476398
2
step 146
 H  0.3762582354  0.2594462791  0.2033541488
 H  0.6237417691 -0.2594462791 -0.2033541488
2
step 147
 H  0.3606220517  0.2507083842  0.1965053815
 H  0.6393779527 -0.2507083842 -0.1965053815
2
step 148
 H  0.3442977697  0.2437986832  0.1910895537
 H  0.6557022348 -0.2437986832 -0.1910895537
2
step 149
 H  0.3270591066  0.2388576750  0.1872167885
 H  0.6729408979 -0.2388576750 -0.1872167885
2
step 150
 H  0.3091849756  0.2352837484  0.1844155427
 H  0.6908150289 -0.2352837484 -0.1844155427
2
step 151
 H  0.2914137780  0.2320310032  0.1818660391
 H  0.7085862265 -0.2320310032 -0.1818660391
2
step 152
 H  0.2747047001  0.2280094297  0.1787139274
 H  0.7252953044 -0.2280094297 -0.1787139274
2
step 153
 H  0.2599531791  0.2223890344  0.1743086582
 H  0.7400468254 -0.2223890344 -0.1743086582
2
step 154
 H  0.2477685622  0.2147471519  0.1683189461
 H  0.7522314423 -0.2147471519 -0.1683189461
2
step 155
 H  0.2383378942  0.2050961377  0.1607544754
 H  0.7616621103 -0.2050961377 -0.1607544754
2
step 156
 H  0.2313615296  0.1938406139  0.1519323891
 H  0.7686384749 -0.1938406139 -0.1519323891
2
step 157
 H  0.2260593930  0.1816840485  0.1424040659
 H  0.7739406115 -0.1816840485 -0.1424040659
2
step 158
 H  0.2212800896  0.1694781577  0.1328370814
 H  0.7787199149 -0.1694781577 -0.1328370814
2
step 159
 H  0.2157573169  0.1580126157  0.1238503827
 H  0.7842426875 -0.1580126157 -0.1238503827
2
step 160
 H  0.2085009775  0.1477884506  0.1158366759
 H  0.7914990269 -0.1477884506 -0.1158366759
2
step 161
 H  0.1991813569  0.1388752913  0.1088505364
 H  0.8008186476 -0.1388752913 -0.1088505364
2
step 162
 H  0.1882849504  0.1309407399  0.1026314302
 H  0.8117150541 -0.1309407399 -0.1026314302
2
step 163
 H  0.1769355723  0.1234325080  0.0967464736
 H  0.8230644322 -0.1234325080 -0.0967464736
2
step 164
 H  0.1664992684  0.1157973402  0.0907620245
 H  0.8335007360 -0.1157973402 -0.0907620245
2
step 165
 H  0.1581852265  0.1076340535  0.0843636355
 H  0.8418147780 -0.1076340535 -0.0843636355
2
step 166
 H  0.1527702140  0.0987547992  0.0774040707
 H  0.8472297904 -0.0987547992 -0.0774040707
2
step 167
 H  0.1504591172  0.0891794635  0.0698989168
 H  0.8495408873 -0.0891794635 -0.0698989168
2
step 168
 H  0.1508494893  0.0790932972  0.0619933736
 H  0.8491505152 -0.0790932972 -0.0619933736
2
step 169
 H  0.1529859843  0.0687835366  0.0539125771
 H  0.8470140202 -0.0687835366 -0.0539125771
2
step 170
 H  0.1555262975  0.0585604920  0.0458997486
 H  0.8444737070 -0.0585604920 -0.0458997486
2
step 171
 H  0.1570479868  0.0486724210  0.0381494727
 H  0.8429520177 -0.0486724210 -0.0381494727
2
step 172
 H  0.1564655145  0.0392391066  0.0307556352
 H  0.8435344900 -0.0392391066 -0.0307556352
2
step 173
 H  0.1534100688  0.0302375606  0.0237002181
 H  0.8465899356 -0.0302375606 -0.0237002181
2
step 174
 H  0.1483662154  0.0215510815  0.0168917505
 H  0.8516337891 -0.0215510815 -0.0168917505
2
step 175
 H  0.1424775203  0.0130499849  0.0102285860
 H  0.8575224842 -0.0130499849 -0.0102285860
2
step 176
 H  0.1371422243  0.0046545011  0.0036482007
 H  0.8628577802 -0.0046545011 -0.0036482007
2
step 177
 H  0.1336064482 -0.0036456138 -0.0028574343
 H  0.8663935563  0.0036456138  0.0028574343
2
step 178
 H  0.1326832107 -0.0118080569 -0.0092551621
 H  0.8673167937  0.0118080569  0.0092551621
2
step 179
 H  0.1346137367 -0.0197730638 -0.0154981392
 H  0.8653862678  0.0197730638  0.0154981392
2
step 180
 H  0.1390398193 -0.0275022985 -0.0215563180
 H  0.8609601852  0.0275022985  0.0215563180
2
step 181
 H  0.1450687309 -0.0350126093 -0.0274429041
 H  0.8549312736  0.0350126093  0.0274429041
2
step 182
 H  0.1514427924 -0.0423952160 -0.0332293957
 H  0.8485572121  0.0423952160  0.0332293957
2
step 183
 H  0.1568315944 -0.0498069274 -0.0390386995
 H  0.8431684100  0.0498069274  0.0390386995
2
step 184
 H  0.1602134440 -0.0574224765 -0.0450077715
 H  0.8397865604  0.0574224765  0.0450077715
2
step 185
 H  0.1612164184 -0.0653565134 -0.0512264743
 H  0.8387835861  0.0653565134  0.0512264743
2
step 186
 H  0.1602433783 -0.0735926106 -0.0576819322
 H  0.8397566262  0.0735926106  0.0576819322
2
step 187
 H  0.1583047081 -0.0819632299 -0.0642428286
 H  0.8416952963  0.0819632299  0.0642428286
2
step 188
 H  0.1566599399 -0.0901930938 -0.0706934009
 H  0.8433400646  0.0901930938  0.0706934009
2
step 189
 H  0.1564493247 -0.0979801600 -0.0767969080
 H  0.8435506798  0.0979801600  0.0767969080
2
step 190
 H  0.1584342356 -0.1050790152 -0.0823609950
 H  0.8415657689  0.1050790152  0.0823609950
2
step 191
 H  0.1628675089 -0.1113663058 -0.0872889771
 H  0.8371324956  0.1113663058  0.0872889771
2
step 192
 H  0.1694682233 -0.1168824684 -0.0916125486
 H  0.8305317812  0.1168824684  0.0916125486
2
step 193
 H  0.1774821200 -0.1218463522 -0.0955032437
 H  0.8225178844  0.1218463522  0.0955032437
2
step 194
 H  0.1858331557 -0.1266324213 -0.0992545675
 H  0.8141668487  0.1266324213  0.0992545675
2
step 195
 H  0.1933766428 -0.1316955085 -0.1032230183
 H  0.8066233617  0.1316955085  0.1032230183
2
step 196
 H  0.1992234397 -0.1374410627 -0.1077263872
 H  0.8007765647  0.1374410627  0.1077263872
2
step 197
 H  0.2030282916 -0.1440760810 -0.1129269185
 H  0.7969717128  0.1440760810  0.1129269185
2
step 198
 H  0.2050988414 -0.1515118336 -0.1187550658
 H  0.7949011631  0.1515118336  0.1187550658
2
step 199
 H  0.2062611961 -0.1593764915 -0.1249193894
 H  0.7937388084  0.1593764915  0.1249193894
2
step 200
 H  0.2075626570 -0.1671308277 -0.1309972428
 H  0.7924373475  0.1671308277  0.1309972428
2
step 201
 H  0.2099617380 -0.1742258351 -0.1365583137
 H  0.7900382665  0.1742258351  0.1365583137
2
step 202
 H  0.2141079833 -0.1802421803 -0.1412739287
 H  0.7858920212  0.1802421803  0.1412739287
2
step 203
 H  0.2202325771 -0.1849850479 -0.1449913912
 H  0.7797674274  0.1849850479  0.1449913912
2
step 204
 H  0.2281290026 -0.1885329350 -0.1477722272
 H  0.7718710018  0.1885329350  0.1477722272
2
step 205
 H  0.2372058266 -0.1912413190 -0.1498950602
 H  0.7627941779  0.1912413190  0.1498950602
2
step 206
 H  0.2466122496 -0.1936911135 -0.1518152106
 H  0.7533877549  0.1936911135  0.1518152106
2
step 207
 H  0.2554412836 -0.1965657079 -0.1540683194
 H  0.7445587209  0.1965657079  0.1540683194
2
step 208
 H  0.2629846750 -0.2004595543 -0.1571203186
 H  0.7370153295  0.2004595543  0.1571203186
2
step 209
 H  0.2689565939 -0.2056712963 -0.1612052851
 H  0.7310434106  0.2056712963  0.1612052851
2
step 210
 H  0.2735766458 -0.2120783676 -0.1662271514
 H  0.7264233586  0.2120783676  0.1662271514
2
step 211
 H  0.2774643937 -0.2191663272 -0.1717826983
 H  0.7225356108  0.2191663272  0.1717826983
2
step 212
 H  0.2814090326 -0.2261961707 -0.1772926939
 H  0.7185909719  0.2261961707  0.1772926939
2
step 213
 H  0.2861315196 -0.2324220539 -0.1821725449
 H  0.7138684849  0.2324220539  0.1821725449
2
step 214
 H  0.2921190752 -0.2372775066 -0.1859782516
 H  0.7078809293  0.2372775066  0.1859782516
2
step 215
 H  0.2995476680 -0.2404964679 -0.1885012754
 H  0.7004523365  0.2404964679  0.1885012754
2
step 216
 H  0.3082746462 -0.2421702976 -0.1898132241
 H  0.6917253583  0.2421702976  0.1898132241
2
step 217
 H  0.3178848719 -0.2427455855 -0.1902641351
 H  0.6821151326  0.2427455855  0.1902641351
2
step 218
 H  0.3277869958 -0.2429534851 -0.1904270870
 H  0.6722130087  0.2429534851  0.1904270870
2
step 219
 H  0.3373594886 -0.2436530832 -0.1909754323
 H  0.6626405159  0.2436530832  0.1909754323
2
step 220
 H  0.3461251571 -0.2455937940 -0.1924965627
 H  0.6538748474  0.2455937940  0.1924965627
2
step 221
 H  0.3538959321 -0.2491614654 -0.1952929056
 H  0.6461040724  0.2491614654  0.1952929056
2
step 222
 H  0.3608164422 -0.2542254690 -0.1992620746
 H  0.6391835623  0.2542254690  0.1992620746
2
step 223
 H  0.3672814845 -0.2601752063 -0.2039254823
 H  0.6327185200  0.2601752063  0.2039254823
2
step 224
 H  0.3737780856 -0.2661246080 -0.2085886269
 H  0.6262219188  0.2661246080  0.2085886269
2
step 225
 H  0.3807337092 -0.2711763961 -0.2125482215
 H  0.6192662953  0.2711763961  0.2125482215
2
step 226
 H  0.3884210170 -0.2746452960 -0.2152671473
 H  0.6115789874  0.2746452960  0.2152671473
2
step 227
 H  0.3969242735 -0.2761998291 -0.2164855913
 H  0.6030757310  0.2761998291  0.2164855913
2
step 228
 H  0.4061510424 -0.2759262186 -0.2162711352
 H  0.5938489621  0.2759262186  0.2162711352
2
step 229
 H  0.4158744111 -0.2743233123 -0.2150147763
 H  0.5841255933  0.2743233123  0.2150147763
2
step 230
 H  0.4257987612 -0.2722206673 -0.2133667218
 H  0.5742012432  0.2722206673  0.2133667218
2
step 231
 H  0.4356425548 -0.2706009371 -0.2120971763
 H  0.5643574497  0.2706009371  0.2120971763
2
step 232
 H  0.4452199295 -0.2703310433 -0.2118856334
 H  0.5547800750  0.2703310433  0.2118856334
2
step 233
 H  0.4544883980 -0.2718731436 -0.2130943325
 H  0.5455116064  0.2718731436  0.2130943325
2
step 234
 H  0.4635353195 -0.2751077088 -0.2156295867
 H  0.5364646850  0.2751077088  0.2156295867
2
step 235
 H  0.4725107210 -0.2793710393 -0.2189711877
 H  0.5274892834  0.2793710393  0.2189711877
2
step 236
 H  0.4815487747 -0.2836843809 -0.2223519875
 H  0.5184512298  0.2836843809  0.2223519875
2
step 237
 H  0.4907188706 -0.2870504538 -0.2249903174
 H  0.5092811338  0.2870504538  0.2249903174
2
step 238
 H  0.5000183762 -0.2887013035 -0.2262842543
 H  0.4999816283  0.2887013035  0.2262842543
2
step 239
 H  0.5093962072 -0.2882523327 -0.2259323508
 H  0.4906037973  0.2882523327  0.2259323508
2
step 240
 H  0.5187917079 -0.2857692496 -0.2239861088
 H  0.4812082965  0.2857692496  0.2239861088
2
step 241
 H  0.5281773094 -0.2817615611 -0.2208448801
 H  0.4718226951  0.2817615611  0.2208448801
2
step 242
 H  0.5375947107 -0.2770970431 -0.2171888282
 H  0.4624052938  0.2770970431  0.2171888282
2
step 243
 H  0.5471696767 -0.2728171466 -0.2138342427
 H  0.4528303278  0.2728171466  0.2138342427
2
step 244
 H  0.5570865495 -0.2698548927 -0.2115124263
 H  0.4429134550  0.2698548927  0.2115124263
2
step 245
 H  0.5675148519 -0.2687267102 -0.2106281562
 H  0.4324851526  0.2687267102  0.2106281562
2
step 246
 H  0.5785134200 -0.2693388896 -0.2111079827
 H  0.4214865844  0.2693388896  0.2111079827
2
step 247
 H  0.5899666263 -0.2710218863 -0.2124271166
 H  0.4100333782  0.2710218863  0.2124271166
2
step 248
 H  0.6015936143 -0.2727702400 -0.2137974773
 H  0.3984063902  0.2727702400  0.2137974773
2
step 249
 H  0.6130235974 -0.2735528606 -0.2144108958
 H  0.3869764071  0.2735528606  0.2144108958
2
step 250
 H  0.6238985700 -0.2725675315 -0.2136385943
 H  0.3761014345  0.2725675315  0.2136385943
2
step 251
 H  0.6339700731 -0.2693935472 -0.2111508234
 H  0.3660299314  0.2693935472  0.2111508234
2
step 252
 H  0.6431760927 -0.2640544770 -0.2069660570
 H  0.3568239118  0.2640544770  0.2069660570
2
step 253
 H  0.6516930368 -0.2570106380 -0.2014450918
 H  0.3483069676  0.2570106380  0.2014450918
2
step 254
 H  0.6599500607 -0.2490792018 -0.1952284273
 H  0.3400499438  0.2490792018  0.1952284273
2
step 255
 H  0.6685774030 -0.2412609965 -0.1891005134
 H  0.3314226015  0.2412609965  0.1891005134
2
step 256
 H  0.6782585331 -0.2344694690 -0.1837773100
 H  0.3217414714  0.2344694690  0.1837773100
2
step 257
 H  0.6894966324 -0.2292261192 -0.1796675694
 H  0.3105033721  0.2292261192  0.1796675694
2
step 258
 H  0.7023856760 -0.2254632239 -0.1767182098
 H  0.2976143285  0.2254632239  0.1767182098
2
step 259
 H  0.7165178137 -0.2225540030 -0.1744379607
 H  0.2834821908  0.2225540030  0.1744379607
2
step 260
 H  0.7310861856 -0.2195489940 -0.1720826328
 H  0.2689138189  0.2195489940  0.1720826328
2
step 261
 H  0.7451174702 -0.2154758167 -0.1688900740
 H  0.2548825343  0.2154758167  0.1688900740
2
step 262
 H  0.7577209106 -0.2095727454 -0.1642632432
 H  0.2422790938  0.2095727454  0.1642632432
2
step 263
 H  0.7682860774 -0.2014161220 -0.1578700769
 H  0.2317139271  0.2014161220  0.1578700769
2
step 264
 H  0.7766203767 -0.1909627818 -0.1496767426
 H  0.2233796278  0.1909627818  0.1496767426
2
step 265
 H  0.7830355281 -0.1785339017 -0.1399349790
 H  0.2169644764  0.1785339017  0.1399349790
2
step 266
 H  0.7883683861 -0.1647424462 -0.1291252278
 H  0.2116316184  0.1647424462  0.1291252278
2
step 267
 H  0.7938780656 -0.1503457066 -0.1178410548
 H  0.2061219389  0.1503457066  0.1178410548
2
step 268
 H  0.8009439586 -0.1360189593 -0.1066117417
 H  0.1990560458  0.1360189593  0.1066117417
2
step 269
 H  0.8105700923 -0.1221139969 -0.0957130238
 H  0.1894299122  0.1221139969  0.0957130238
2
step 270
 H  0.8228922125 -0.1085384623 -0.0850725117
 H  0.1771077920  0.1085384623  0.0850725117
2
step 271
 H  0.8369988757 -0.0948517145 -0.0743448305
 H  0.1630011288  0.0948517145  0.0743448305
2
step 272
 H  0.8511970323 -0.0805110113 -0.0631045788
 H  0.1488029722  0.0805110113  0.0631045788
2
step 273
 H  0.8635343675 -0.0651016633 -0.0510267226
 H  0.1364656370  0.0651016633  0.0510267226
2
step 274
 H  0.8722954852 -0.0484482702 -0.0379737832
 H  0.1277045192  0.0484482702  0.0379737832
2
step 275
 H  0.8763335669 -0.0306126064 -0.0239941792
 H  0.1236664376  0.0306126064  0.0239941792
2
step 276
 H  0.8752486249 -0.0118256611 -0.0092689603
 H  0.1247513796  0.0118256611  0.0092689603
2
step 277
 H  0.8694610561  0.0076120965  0.0059663658
 H  0.1305389484 -0.0076120965 -0.0059663658
2
step 278
 H  0.8601831292  0.0274471752  0.0215131123
 H  0.1398168753 -0.0274471752 -0.0215131123
2
step 279
 H  0.8492206587  0.0475861082  0.0372980201
 H  0.1507793457 -0.0475861082 -0.0372980201
2
step 280
 H  0.8385150729  0.0681505067  0.0534164079
 H  0.1614849316 -0.0681505067 -0.0534164079
2
step 281
 H  0.8294629379  0.0893914744  0.0700650911
 H  0.1705370666 -0.0893914744 -0.0700650911
2
step 282
 H  0.8223235812  0.1114433850  0.0873493918
 H  0.1776764233 -0.1114433850 -0.0873493918
2
step 283
 H  0.8161358336  0.1340601672  0.1050764392
 H  0.1838641709 -0.1340601672 -0.1050764392
2
step 284
 H  0.8092137208  0.1565429911  0.1226984901
 H  0.1907862837 -0.1565429911 -0.1226984901
2
step 285
 H  0.7998391895  0.1779044299  0.1394415986
 H  0.2001608149 -0.1779044299 -0.1394415986
2
step 286
 H  0.7867602297  0.1971347902  0.1545143665
 H  0.2132397748 -0.1971347902 -0.1545143665
2
step 287
 H  0.7693959572  0.2134369588  0.1672920160
 H  0.2306040473 -0.2134369588 -0.1672920160
2
step 288
 H  0.7478423856  0.2263896295  0.1774443271
 H  0.2521576189 -0.2263896295 -0.1774443271
2
step 289
 H  0.7227803991  0.2360537830  0.1850190963
 H  0.2772196054 -0.2360537830 -0.1850190963
2
step 290
 H  0.6953219200  0.2430284644  0.1904858558
 H  0.3046780845 -0.2430284644 -0.1904858558
2
step 291
 H  0.6667779925  0.2484147431  0.1947076242
 H  0.3332220119 -0.2484147431 -0.1947076242
2
step 292
 H  0.6383387135  0.2536018364  0.1987732710
 H  0.3616612909 -0.2536018364 -0.1987732710
2
step 293
 H  0.6107441250  0.2598243022  0.2036504435
 H  0.3892558795 -0.2598243022 -0.2036504435
2
step 294
 H  0.5841351776  0.2676242200  0.2097640237
 H  0.4158648268 -0.2676242200 -0.2097640237
2
step 295
 H  0.5582203720  0.2765548598  0.2167638645
 H  0.4417796325 -0.2765548598 -0.2167638645
2
step 296
 H  0.5326364121  0.2853588191  0.2236644131
 H  0.4673635924 -0.2853588191 -0.2236644131
2
step 297
 H  0.5072302466  0.2924736420  0.2292410155
 H  0.4927697579 -0.2924736420 -0.2292410155
2
step 298