2
step 0
 H  0.1438850079  0.0000000000  0.0000000000
 H  0.8561149966  0.0000000000  0.0000000000
2
step 1
 H  0.1492863743 -0.0097110920 -0.0076115597
 H  0.8507136302  0.0097110920  0.0076115597
2
step 2
 H  0.1531860742 -0.0193019617 -0.0151288891
 H  0.8468139303  0.0193019617  0.0151288891
2
step 3
 H  0.1546810631 -0.0288664216 -0.0226255185
 H  0.8453189414  0.0288664216  0.0226255185
2
step 4
 H  0.1536957676 -0.0384810095 -0.0301614383
 H  0.8463042369  0.0384810095  0.0301614383
2
step 5
 H  0.1509915506 -0.0481335687 -0.0377271200
 H  0.8490084539  0.0481335687  0.0377271200
2
step 6
 H  0.1478597755 -0.0576967904 -0.0452227789
 H  0.8521402290  0.0576967904  0.0452227789
2
step 7
 H  0.1456831019 -0.0669600629 -0.0524833373
 H  0.8543169026  0.0669600629  0.0524833373
2
step 8
 H  0.1455643678 -0.0756956422 -0.0593302896
 H  0.8544356367  0.0756956422  0.0593302896
2
step 9
 H  0.1481065324 -0.0837284065 -0.0656263751
 H  0.8518934720  0.0837284065  0.0656263751
2
step 10
 H  0.1533294475 -0.0909922378 -0.0713197704
 H  0.8466705570  0.0909922378  0.0713197704
2
step 11
 H  0.1606870863 -0.0975670560 -0.0764731168
 H  0.8393129182  0.0975670560  0.0764731168
2
step 12
 H  0.1691735775 -0.1036898891 -0.0812721971
 H  0.8308264270  0.1036898891  0.0812721971
2
step 13
 H  0.1775324453 -0.1097259857 -0.0860032932
 H  0.8224675592  0.1097259857  0.0860032932
2
step 14
 H  0.1845723907 -0.1160848581 -0.0909873812
 H  0.8154276138  0.1160848581  0.0909873812
2
step 15
 H  0.1895256456 -0.1230871435 -0.0964757767
 H  0.8104743588  0.1230871435  0.0964757767
2
step 16
 H  0.1923017177 -0.1308305192 -0.1025450392
 H  0.8076982868  0.1308305192  0.1025450392
2
step 17
 H  0.1934948000 -0.1391281920 -0.1090487601
 H  0.8065052044  0.1391281920  0.1090487601
2
step 18
 H  0.1941404212 -0.1475592363 -0.1156570176
 H  0.8058595832  0.1475592363  0.1156570176
2
step 19
 H  0.1953628758 -0.1556005678 -0.1219598181
 H  0.8046371287  0.1556005678  0.1219598181
2
step 20
 H  0.1980714297 -0.1627750145 -0.1275831537
 H  0.8019285747  0.1627750145  0.1275831537
2
step 21
 H  0.2027772253 -0.1687682065 -0.1322806212
 H  0.7972227792  0.1687682065  0.1322806212
2
step 22
 H  0.2095243875 -0.1735005459 -0.1359898316
 H  0.7904756170  0.1735005459  0.1359898316
2
step 23
 H  0.2179067978 -0.1771564080 -0.1388552985
 H  0.7820932067  0.1771564080  0.1388552985
2
step 24
 H  0.2271576222 -0.1801682836 -0.1412160084
 H  0.7728423823  0.1801682836  0.1412160084
2
step 25
 H  0.2363168723 -0.1831425632 -0.1435472506
 H  0.7636831322  0.1831425632  0.1435472506
2
step 26
 H  0.2444740584 -0.1867152886 -0.1463475549
 H  0.7555259461  0.1867152886  0.1463475549
2
step 27
 H  0.2510360362 -0.1913571474 -0.1499858466
 H  0.7489639683  0.1913571474  0.1499858466
2
step 28
 H  0.2559140833 -0.1971985807 -0.1545643655
 H  0.7440859212  0.1971985807  0.1545643655
2
step 29
 H  0.2595303489 -0.2039670422 -0.1598694897
 H  0.7404696556  0.2039670422  0.1598694897
2
step 30
 H  0.2626406735 -0.2110748491 -0.1654405930
 H  0.7373593310  0.2110748491  0.1654405930
2
step 31
 H  0.2660748616 -0.2178074690 -0.1707176245
 H  0.7339251429  0.2178074690  0.1707176245
2
step 32
 H  0.2705102464 -0.2235232685 -0.1751976716
 H  0.7294897581  0.2235232685  0.1751976716
2
step 33
 H  0.2763344076 -0.2278042665 -0.1785531204
 H  0.7236655968  0.2278042665  0.1785531204
2
step 34
 H  0.2835947956 -0.2305424927 -0.1806993437
 H  0.7164052088  0.2305424927  0.1806993437
2
step 35
 H  0.2920142024 -0.2319675955 -0.1818163401
 H  0.7079858021  0.2319675955  0.1818163401
2
step 36
 H  0.3010600130 -0.2326165432 -0.1823249857
 H  0.6989399914  0.2326165432  0.1823249857
2
step 37
 H  0.3100669339 -0.2332337637 -0.1828087635
 H  0.6899330706  0.2332337637  0.1828087635
2
step 38
 H  0.3184072327 -0.2345926335 -0.1838738465
 H  0.6815927718  0.2345926335  0.1838738465
2
step 39
 H  0.3256722452 -0.2372643624 -0.1859679492
 H  0.6743277593  0.2372643624  0.1859679492
2
step 40
 H  0.3317946187 -0.2414163182 -0.1892222546
 H  0.6682053858  0.2414163182  0.1892222546
2
step 41
 H  0.3370479339 -0.2467424354 -0.1933968684
 H  0.6629520706  0.2467424354  0.1933968684
2
step 42
 H  0.3419251290 -0.2525668403 -0.1979620405
 H  0.6580748754  0.2525668403  0.1979620405
2
step 43
 H  0.3469646804 -0.2580625301 -0.2022695655
 H  0.6530353241  0.2580625301  0.2022695655
2
step 44
 H  0.3526019880 -0.2624829391 -0.2057342847
 H  0.6473980164  0.2624829391  0.2057342847
2
step 45
 H  0.3590828621 -0.2653360323 -0.2079705408
 H  0.6409171424  0.2653360323  0.2079705408
2
step 46
 H  0.3664367431 -0.2664823882 -0.2088690553
 H  0.6335632614  0.2664823882  0.2088690553
2
step 47
 H  0.3744940384 -0.2661642318 -0.2086196841
 H  0.6255059660  0.2661642318  0.2086196841
2
step 48
 H  0.3829369351 -0.2649685242 -0.2076824878
 H  0.6170630694  0.2649685242  0.2076824878
2
step 49
 H  0.3913797181 -0.2637140816 -0.2066992549
 H  0.6086202864  0.2637140816  0.2066992549
2
step 50
 H  0.3994709017 -0.2632551173 -0.2063395184
 H  0.6005291028  0.2632551173  0.2063395184
2
step 51
 H  0.4069929263 -0.2642299752 -0.2071036126
 H  0.5930070782  0.2642299752  0.2071036126
2
step 52
 H  0.4139196251 -0.2668420081 -0.2091509256
 H  0.5860803794  0.2668420081  0.2091509256
2
step 53
 H  0.4204017102 -0.2707814482 -0.2122386611
 H  0.5795982943  0.2707814482  0.2122386611
2
step 54
 H  0.4266898970 -0.2753332996 -0.2158064049
 H  0.5733101075  0.2753332996  0.2158064049
2
step 55
 H  0.4330396372 -0.2796108853 -0.2191591791
 H  0.5669603673  0.2796108853  0.2191591791
2
step 56
 H  0.4396396400 -0.2828055860 -0.2216631875
 H  0.5603603645  0.2828055860  0.2216631875
2
step 57
 H  0.4465799135 -0.2843754739 -0.2228936665
 H  0.5534200909  0.2843754739  0.2228936665
2
step 58
 H  0.4538533391 -0.2841514511 -0.2227180773
 H  0.5461466654  0.2841514511  0.2227180773
2
step 59
 H  0.4613788321 -0.2823685324 -0.2213206246
 H  0.5386211724  0.2823685324  0.2213206246
2
step 60
 H  0.4690370174 -0.2796272554 -0.2191720100
 H  0.5309629870  0.2796272554  0.2191720100
2
step 61
 H  0.4767116658 -0.2767766058 -0.2169376692
 H  0.5232883387  0.2767766058  0.2169376692
2
step 62
 H  0.4843275345 -0.2747112383 -0.2153188329
 H  0.5156724700  0.2747112383  0.2153188329
2
step 63
 H  0.4918703930 -0.2741115121 -0.2148487672
 H  0.5081296115  0.2741115121  0.2148487672
2
step 64
 H  0.4993770510 -0.2752139942 -0.2157128933
 H  0.5006229535  0.2752139942  0.2157128933
2
step 65
 H  0.5068986860 -0.2777245197 -0.2176806447
 H  0.4931013185  0.2777245197  0.2176806447
2
step 66
 H  0.5144595229 -0.2809231462 -0.2201877300
 H  0.4855404816  0.2809231462  0.2201877300
2
step 67
 H  0.5220352287 -0.2839016900 -0.2225223145
 H  0.4779647758  0.2839016900  0.2225223145
2
step 68
 H  0.5295594198 -0.2858209451 -0.2240266278
 H  0.4704405847  0.2858209451  0.2240266278
2
step 69
 H  0.5369505391 -0.2861060284 -0.2242500762
 H  0.4630494654  0.2861060284  0.2242500762
2
step 70
 H  0.5441468395 -0.2845568203 -0.2230358060
 H  0.4558531649  0.2845568203  0.2230358060
2
step 71
 H  0.5511401654 -0.2813821618 -0.2205475067
 H  0.4488598391  0.2813821618  0.2205475067
2
step 72
 H  0.5580012786 -0.2771646700 -0.2172418342
 H  0.4419987259  0.2771646700  0.2172418342
2
step 73
 H  0.5648872861 -0.2727483483 -0.2137803185
 H  0.4351127184  0.2727483483  0.2137803185
2
step 74
 H  0.5720185854 -0.2690399495 -0.2108736733
 H  0.4279814191  0.2690399495  0.2108736733
2
step 75
 H  0.5796176157 -0.2667483651 -0.2090775281
 H  0.4203823887  0.2667483651  0.2090775281
2
step 76
 H  0.5878220955 -0.2661466482 -0.2086059020
 H  0.4121779090  0.2661466482  0.2086059020
2
step 77
 H  0.5966116546 -0.2669717134 -0.2092525886
 H  0.4033883499  0.2669717134  0.2092525886
2
step 78
 H  0.6057902323 -0.2685185551 -0.2104650041
 H  0.3942097722  0.2685185551  0.2104650041
2
step 79
 H  0.6150352713 -0.2698739994 -0.2115274021
 H  0.3849647332  0.2698739994  0.2115274021
2
step 80
 H  0.6239879046 -0.2701751376 -0.2117634344
 H  0.3760120999  0.2701751376  0.2117634344
2
step 81
 H  0.6323486481 -0.2688074699 -0.2106914557
 H  0.3676513564  0.2688074699  0.2106914557
2
step 82
 H  0.6399571021 -0.2655192020 -0.2081141093
 H  0.3600429024  0.2655192020  0.2081141093
2
step 83
 H  0.6468487194 -0.2604622845 -0.2041504944
 H  0.3531512851  0.2604622845  0.2041504944
2
step 84
 H  0.6532833938 -0.2541686655 -0.1992175520
 H  0.3467166107  0.2541686655  0.1992175520
2
step 85
 H  0.6597308821 -0.2474522396 -0.1939532134
 H  0.3402691223  0.2474522396  0.1939532134
2
step 86
 H  0.6667887614 -0.2412205695 -0.1890688266
 H  0.3332112431  0.2412205695  0.1890688266
2
step 87
 H  0.6750203190 -0.2362112627 -0.1851425290
 H  0.3249796855  0.2362112627  0.1851425290
2
step 88
 H  0.6847477218 -0.2327356990 -0.1824183801
 H  0.3152522826  0.2327356990  0.1824183801
2
step 89
 H  0.6958941416 -0.2305581285 -0.1807115990
 H  0.3041058628  0.2305581285  0.1807115990
2
step 90
 H  0.7079679155 -0.2289832890 -0.1794772389
 H  0.2920320890  0.2289832890  0.1794772389
2
step 91
 H  0.7201989734 -0.2270976337 -0.1779992612
 H  0.2798010310  0.2270976337  0.1779992612
2
step 92
 H  0.7317526484 -0.2240355484 -0.1755991968
 H  0.2682473561  0.2240355484  0.1755991968
2
step 93
 H  0.7419357471 -0.2191762340 -0.1717904633
 H  0.2580642574  0.2191762340  0.1717904633
2
step 94
 H  0.7503537270 -0.2122494615 -0.1663612549
 H  0.2496462774  0.2122494615  0.1663612549
2
step 95
 H  0.7570149065 -0.2033673427 -0.1593994448
 H  0.2429850980  0.2033673427  0.1593994448
2
step 96
 H  0.7623802546 -0.1929959460 -0.1512703379
 H  0.2376197499  0.1929959460  0.1512703379
2
step 97
 H  0.7673329250 -0.1818599410 -0.1425419305
 H  0.2326670795  0.1818599410  0.1425419305
2
step 98
 H  0.7730164409 -0.1707650873 -0.1338457776
 H  0.2269835636  0.1707650873  0.1338457776
2
step 99
 H  0.7805093776 -0.1603543743 -0.1256858545
 H  0.2194906269  0.1603543743  0.1256858545
2
step 100
 H  0.7904073550 -0.1508837898 -0.1182628047
 H  0.2095926495  0.1508837898  0.1182628047
2
step 101
 H  0.8025163443 -0.1421450878 -0.1114134049
 H  0.1974836602  0.1421450878  0.1114134049
2
step 102
 H  0.8158556243 -0.1335896118 -0.1047076176
 H  0.1841443802  0.1335896118  0.1047076176
2
step 103
 H  0.8289675536 -0.1245670176 -0.0976357029
 H  0.1710324509  0.1245670176  0.0976357029
2
step 104
 H  0.8403444323 -0.1145394228 -0.0897760681
 H  0.1596555721  0.1145394228  0.0897760681
2
step 105
 H  0.8487897980 -0.1031971527 -0.0808859900
 H  0.1512102065  0.1031971527  0.0808859900
2
step 106
 H  0.8536510836 -0.0904825009 -0.0709202383
 H  0.1463489209  0.0904825009  0.0709202383
2
step 107
 H  0.8549425622 -0.0765555815 -0.0600043106
 H  0.1450574422  0.0765555815  0.0600043106
2
step 108
 H  0.8533797780 -0.0617253583 -0.0483803727
 H  0.1466202265  0.0617253583  0.0483803727
2
step 109
 H  0.8503009540 -0.0463534285 -0.0363318450
 H  0.1496990505  0.0463534285  0.0363318450
2
step 110
 H  0.8474067010 -0.0307402522 -0.0240942281
 H  0.1525933035  0.0307402522  0.0240942281
2
step 111
 H  0.8462756705 -0.0150296116 -0.0117802185
 H  0.1537243340  0.0150296116  0.0117802185
2
step 112
 H  0.8477700838  0.0008068766  0.0006324304
 H  0.1522299207 -0.0008068766 -0.0006324304
2
step 113
 H  0.8516413257  0.0168728984  0.0132249879
 H  0.1483586788 -0.0168728984 -0.0132249879
2
step 114
 H  0.8566095682  0.0331976969  0.0260203747
 H  0.1433904362 -0.0331976969 -0.0260203747
2
step 115
 H  0.8608572884  0.0496427966  0.0389100536
 H  0.1391427161 -0.0496427966 -0.0389100536
2
step 116
 H  0.8626150527  0.0659150662  0.0516642683
 H  0.1373849518 -0.0659150662 -0.0516642683
2
step 117
 H  0.8605845808  0.0816534177  0.0639999977
 H  0.1394154237 -0.0816534177 -0.0639999977
2
step 118
 H  0.8541498284  0.0965370283  0.0756657805
 H  0.1458501761 -0.0965370283 -0.0756657805
2
step 119
 H  0.8434379515  0.1103871112  0.0865214838
 H  0.1565620530 -0.1103871112 -0.0865214838
2
step 120
 H  0.8292834816  0.1232529595  0.0966057434
 H  0.1707165229 -0.1232529595 -0.0966057434
2
step 121
 H  0.8130907045  0.1354666483  0.1061788400
 H  0.1869093000 -0.1354666483 -0.1061788400
2
step 122
 H  0.7965445593  0.1476246783  0.1157083111
 H  0.2034554452 -0.1476246783 -0.1157083111
2
step 123
 H  0.7811503029  0.1604379408  0.1257513540
 H  0.2188497016 -0.1604379408 -0.1257513540
2
step 124
 H  0.7677257259  0.1744400051  0.1367261803
 H  0.2322742786 -0.1744400051 -0.1367261803
2
step 125
 H  0.7561250571  0.1896763421  0.1486684304
 H  0.2438749473 -0.1896763421 -0.1486684304
2
step 126
 H  0.7453969259  0.2055831789  0.1611362186
 H  0.2546030786 -0.2055831789 -0.1611362186
2
step 127
 H  0.7342578706  0.2211460463  0.1733344033
 H  0.2657421338 -0.2211460463 -0.1733344033
2
step 128
 H  0.7215671324  0.2352190703  0.1843648480
 H  0.2784328720 -0.2352190703 -0.1843648480
2
step 129
 H  0.7066034352  0.2468286716  0.1934644604
 H  0.2933965692 -0.2468286716 -0.1934644604
2
step 130
 H  0.6891426328  0.2553785105  0.2001658293
 H  0.3108573717 -0.2553785105 -0.2001658293
2
step 131
 H  0.6694159220  0.2607627308  0.2043859844
 H  0.3305840824 -0.2607627308 -0.2043859844
2
step 132
 H  0.6480074462  0.2634135149  0.2064636705
 H  0.3519925582 -0.2634135149 -0.2064636705
2
step 133
 H  0.6257066718  0.2642769774  0.2071404530
 H  0.3742933327 -0.2642769774 -0.2071404530
2
step 134
 H  0.6033126684  0.2646672229  0.2074463276
 H  0.3966873360 -0.2646672229 -0.2074463276
2
step 135
 H  0.5814158591  0.2659419038  0.2084454232
 H  0.4185841454 -0.2659419038 -0.2084454232
2
step 136
 H  0.5602461444  0.2690357413  0.2108703750
 H  0.4397538601 -0.2690357413 -0.2108703750
2
step 137
 H  0.5396950277  0.2740628349  0.2148106139
 H  0.4603049768 -0.2740628349 -0.2148106139
2
step 138
 H  0.5195114820  0.2802543552  0.2196635312
 H  0.4804885225 -0.2802543552 -0.2196635312
2
step 139
 H  0.4995267961  0.2862784892  0.2243852511
 H  0.5004732084 -0.2862784892 -0.2243852511
2
step 140
 H  0.4797652929  0.2907175695  0.2278646049
 H  0.5202347115 -0.2907175695 -0.2278646049
2
step 141
 H  0.4604209205  0.2924556863  0.2292269418
 H  0.5395790839 -0.2924556863 -0.2292269418
2
step 142
 H  0.4417605385  0.2908912090  0.2280007036
 H  0.5582394660 -0.2908912090 -0.2280007036
2
step 143
 H  0.4240100010  0.2860104024  0.2241751245
 H  0.5759900034 -0.2860104024 -0.2241751245
2
step 144
 H  0.4072489173  0.2783744407  0.2181900531
 H  0.5927510872 -0.2783744407 -0.2181900531
2
step 145
 H  0.3913291795  0.2690317850  0.2108672740
 H  0.6086708250 -0.2690317850 -0.2108672740
2
step 146
 H  0.3758472801  0.2593258846  0.2032597835
 H  0.6241527244 -0.2593258846 -0.2032597835
2
step 147
 H  0.3602212874  0.2505697232  0.1963966989
 H  0.6397787170 -0.2505697232 -0.1963966989
2
step 148
 H  0.3439042730  0.2436412161  0.1909661309
 H  0.6560957315 -0.2436412161 -0.1909661309
2
step 149
 H  0.3266695204  0.2386808890  0.1870782235
 H  0.6733304840 -0.2386808890 -0.1870782235
2
step 150
 H  0.3087968505  0.2350874176  0.1842616585
 H  0.6912031540 -0.2350874176 -0.1842616585
2
step 151
 H  0.2910264924  0.2318154577  0.1816970944
 H  0.7089735120 -0.2318154577 -0.1816970944
2
step 152
 H  0.2743196787  0.2277757139  0.1785307408
 H  0.7256803258 -0.2277757139 -0.1785307408
2
step 153
 H  0.2595735160  0.2221388774  0.1741125850
 H  0.7404264884 -0.2221388774 -0.1741125850
2
step 154
 H  0.2473983226  0.2144827520  0.1681117093
 H  0.7526016819 -0.2144827520 -0.1681117093
2
step 155
 H  0.2379813184  0.2048198079  0.1605378880
 H  0.7620186861 -0.2048198079 -0.1605378880
2
step 156
 H  0.2310222698  0.1935543529  0.1517080176
 H  0.7689777347 -0.1935543529 -0.1517080176
2
step 157
 H  0.2257398648  0.1813891152  0.1421728970
 H  0.7742601397 -0.1813891152 -0.1421728970
2
step 158
 H  0.2209810384  0.1691747549  0.1325992741
 H  0.7790189661 -0.1691747549 -0.1325992741
2
step 159
 H  0.2154777462  0.1576998201  0.1236052134
 H  0.7845222582 -0.1576998201 -0.1236052134
2
step 160
 H  0.2082385623  0.1474644977  0.1155827615
 H  0.7917614422 -0.1474644977 -0.1155827615
2
step 161
 H  0.1989332911  0.1385381987  0.1085863230
 H  0.8010667134 -0.1385381987 -0.1085863230
2
step 162
 H  0.1880489128  0.1305890699  0.1023557911
 H  0.8119510916 -0.1305890699 -0.1023557911
2
step 163
 H  0.1767104030  0.1230659754  0.0964591851
 H  0.8232896014 -0.1230659754 -0.0964591851
2
step 164
 H  0.1662851529  0.1154170568  0.0904639582
 H  0.8337148516 -0.1154170568 -0.0904639582
2
step 165
 H  0.1579834670  0.1072423819  0.0840566431
 H  0.8420165374 -0.1072423819 -0.0840566431
2
step 166
 H  0.1525827924  0.0983549131  0.0770906397
 H  0.8474172121 -0.0983549131 -0.0770906397
2
step 167
 H  0.1502882141  0.0887747439  0.0695816974
 H  0.8497117904 -0.0887747439 -0.0695816974
2
step 168
 H  0.1506970496  0.0786866744  0.0616746625
 H  0.8493029549 -0.0786866744 -0.0616746625
2
step 169
 H  0.1528533654  0.0683768812  0.0535938404
 H  0.8471466390 -0.0683768812 -0.0535938404
2
step 170
 H  0.1554140363  0.0581541828  0.0455812833
 H  0.8445859682 -0.0581541828 -0.0455812833
2
step 171
 H  0.1569557376  0.0482652498  0.0378303317
 H  0.8430442669 -0.0482652498 -0.0378303317
2
step 172
 H  0.1563922126  0.0388286457  0.0304339157
 H  0.8436077919 -0.0388286457 -0.0304339157
2
step 173
 H  0.1533543014  0.0298209640  0.0233736894
 H  0.8466457031 -0.0298209640 -0.0233736894
2
step 174
 H  0.1483266599  0.0211260612  0.0165586194
 H  0.8516733446 -0.0211260612 -0.0165586194
2
step 175
 H  0.1424532583  0.0126155907  0.0098881075
 H  0.8575467462 -0.0126155907 -0.0098881075
2
step 176
 H  0.1371328347  0.0042114473  0.0033009349
 H  0.8628671697 -0.0042114473 -0.0033009349
2
step 177
 H  0.1336119242 -0.0040950999 -0.0032097417
 H  0.8663880802  0.0040950999  0.0032097417
2
step 178
 H  0.1327038098 -0.0122607344 -0.0096099709
 H  0.8672961947  0.0122607344  0.0096099709
2
step 179
 H  0.1346498458 -0.0202253624 -0.0158526511
 H  0.8653501586  0.0202253624  0.0158526511
2
step 180
 H  0.1390918682 -0.0279510539 -0.0219080528
 H  0.8609081363  0.0279510539  0.0219080528
2
step 181
 H  0.1451371453 -0.0354557374 -0.0277902282
 H  0.8548628592  0.0354557374  0.0277902282
2
step 182
 H  0.1515279657 -0.0428321963 -0.0335719010
 H  0.8484720388  0.0428321963  0.0335719010
2
step 183
 H  0.1569338571 -0.0502389368 -0.0393773087
 H  0.8430661474  0.0502389368  0.0393773087
2
step 184
 H  0.1603330264 -0.0578520453 -0.0453444677
 H  0.8396669781  0.0578520453  0.0453444677
2
step 185
 H  0.1613534133 -0.0657867230 -0.0515636728
 H  0.8386465911  0.0657867230  0.0515636728
2
step 186
 H  0.1603977023 -0.0740260878 -0.0580216919
 H  0.8396023022  0.0740260878  0.0580216919
2
step 187
 H  0.1584760524 -0.0824013150 -0.0645862000
 H  0.8415239521  0.0824013150  0.0645862000
2
step 188
 H  0.1568477271 -0.0906354588 -0.0710401268
 H  0.8431522774  0.0906354588  0.0710401268
2
step 189
 H  0.1566527091 -0.0984249187 -0.0771455102
 H  0.8433472953  0.0984249187  0.0771455102
2
step 190
 H  0.1586521827 -0.1055231952 -0.0827091435
 H  0.8413478217  0.1055231952  0.0827091435
2
step 191
 H  0.1630989606 -0.1118065135 -0.0876340122
 H  0.8369010439  0.1118065135  0.0876340122
2
step 192
 H  0.1697123242 -0.1173156103 -0.0919520455
 H  0.8302876803  0.1173156103  0.0919520455
2
step 193
 H  0.1777384543 -0.1222702998 -0.0958355341
 H  0.8222615501  0.1222702998  0.0958355341
2
step 194
 H  0.1861019221 -0.1270465002 -0.0995791228
 H  0.8138980823  0.1270465002  0.0995791228
2
step 195
 H  0.1936586855 -0.1321006658 -0.1035405809
 H  0.8063413190  0.1321006658  0.1035405809
2
step 196
 H  0.1995200792 -0.1378395883 -0.1080387517
 H  0.8004799253  0.1378395883  0.1080387517
2
step 197
 H  0.2033409677 -0.1444708880 -0.1132363685
 H  0.7966590368  0.1444708880  0.1132363685
2
step 198
 H  0.2054286675 -0.1519055201 -0.1190636375
 H  0.7945713370  0.1519055201  0.1190636375
2
step 199
 H  0.2066085699 -0.1597705357 -0.1252282415
 H  0.7933914346  0.1597705357  0.1252282415
2
step 200
 H  0.2079270518 -0.1675251888 -0.1313063432
 H  0.7920729527  0.1675251888  0.1313063432
2
step 201
 H  0.2103417323 -0.1746190144 -0.1368664879
 H  0.7896582722  0.1746190144  0.1368664879
2
step 202
 H  0.2145015128 -0.1806316269 -0.1415791772
 H  0.7854984917  0.1806316269  0.1415791772
2
step 203
 H  0.2206373504 -0.1853677495 -0.1452913529
 H  0.7793626540  0.1853677495  0.1452913529
2
step 204
 H  0.2285430042 -0.1889060631 -0.1480646852
 H  0.7714570003  0.1889060631  0.1480646852
2
step 205
 H  0.2376278134 -0.1916028293 -0.1501784122
 H  0.7623721910  0.1916028293  0.1501784122
2
step 206
 H  0.2470421278 -0.1940401987 -0.1520888238
 H  0.7529578767  0.1940401987  0.1520888238
2
step 207
 H  0.2558802263 -0.1969029815 -0.1543326747
 H  0.7441197782  0.1969029815  0.1543326747
2
step 208
 H  0.2634348749 -0.2007868518 -0.1573768545
 H  0.7365651295  0.2007868518  0.1573768545
2
step 209
 H  0.2694206550 -0.2059910857 -0.1614559362
 H  0.7305793495  0.2059910857  0.1614559362
2
step 210
 H  0.2740567846 -0.2123929459 -0.1664737180
 H  0.7259432199  0.2123929459  0.1664737180
2
step 211
 H  0.2779617275 -0.2194771079 -0.1720262884
 H  0.7220382770  0.2194771079  0.1720262884
2
step 212
 H  0.2819231901 -0.2265033093 -0.1775334293
 H  0.7180768144  0.2265033093  0.1775334293
2
step 213
 H  0.2866606614 -0.2327244688 -0.1824095779
 H  0.7133393430  0.2327244688  0.1824095779
2
step 214
 H  0.2926602752 -0.2375731971 -0.1862100140
 H  0.7073397293  0.2375731971  0.1862100140
2
step 215
 H  0.3000975388 -0.2407829893 -0.1887258510
 H  0.6999024657  0.2407829893  0.1887258510
2
step 216
 H  0.3088300835 -0.2424452793 -0.1900287550
 H  0.6911699210  0.2424452793  0.1900287550
2
step 217
 H  0.3184437896 -0.2430072139 -0.1904691996
 H  0.6815562149  0.2430072139  0.1904691996
2
step 218
 H  0.3283488979 -0.2432008765 -0.1906209924
 H  0.6716511066  0.2432008765  0.1906209924
2
step 219
 H  0.3379256952 -0.2438864573 -0.1911583511
 H  0.6620743093  0.2438864573  0.1911583511
2
step 220
 H  0.3466985225 -0.2458143596 -0.1926694421
 H  0.6533014820  0.2458143596  0.1926694421
2
step 221
 H  0.3544800408 -0.2493709990 -0.1954571382
 H  0.6455199637  0.2493709990  0.1954571382
2
step 222
 H  0.3614145033 -0.2544257115 -0.1994190249
 H  0.6385855012  0.2544257115  0.1994190249
2
step 223
 H  0.3678953164 -0.2603673112 -0.2040760542
 H  0.6321046881  0.2603673112  0.2040760542
2
step 224
 H  0.3744075364 -0.2663088402 -0.2087330283
 H  0.6255924681  0.2663088402  0.2087330283
2
step 225
 H  0.3813766422 -0.2713521293 -0.2126859613
 H  0.6186233623  0.2713521293  0.2126859613
2
step 226
 H  0.3890737854 -0.2748112268 -0.2153972039
 H  0.6109262191  0.2748112268  0.2153972039
2
step 227
 H  0.3975825158 -0.2763542962 -0.2166066627
 H  0.6024174887  0.2763542962  0.2166066627
2
step 228
 H  0.4068106316 -0.2760675417 -0.2163819043
 H  0.5931893729  0.2760675417  0.2163819043
2
step 229
 H  0.4165323968 -0.2744500989 -0.2151141517
 H  0.5834676077  0.2744500989  0.2151141517
2
step 230
 H  0.4264541260 -0.2723320525 -0.2134540256
 H  0.5735458785  0.2723320525  0.2134540256
2
step 231
 H  0.4362965617 -0.2706967111 -0.2121722441
 H  0.5637034427  0.2706967111  0.2121722441
2
step 232
 H  0.4458758494 -0.2704116171 -0.2119487873
 H  0.5541241551  0.2704116171  0.2119487873
2
step 233
 H  0.4551505671 -0.2719393349 -0.2131462133
 H  0.5448494373  0.2719393349  0.2131462133
2
step 234
 H  0.4642077787 -0.2751604123 -0.2156708957
 H  0.5357922258  0.2751604123  0.2156708957
2
step 235
 H  0.4731959258 -0.2794109204 -0.2190024465
 H  0.5268040787  0.2794109204  0.2190024465
2
step 236
 H  0.4822468273 -0.2837117112 -0.2223734089
 H  0.5177531772  0.2837117112  0.2223734089
2
step 237
 H  0.4914274506 -0.2870651078 -0.2250018032
 H  0.5085725538  0.2870651078  0.2250018032
2
step 238
 H  0.5007332716 -0.2887028549 -0.2262854704
 H  0.4992667329  0.2887028549  0.2262854704
2
step 239
 H  0.5101122330 -0.2882401748 -0.2259228214
 H  0.4898877715  0.2882401748  0.2259228214
2
step 240
 H  0.5195038051 -0.2857426921 -0.2239652930
 H  0.4804961993  0.2857426921  0.2239652930
2
step 241
 H  0.5288816481 -0.2817198926 -0.2208122203
 H  0.4711183564  0.2817198926  0.2208122203
2
step 242
 H  0.5382896024 -0.2770395668 -0.2171437782
 H  0.4617104021  0.2770395668  0.2171437782
2
step 243
 H  0.5478560501 -0.2727432075 -0.2137762891
 H  0.4521439544  0.2727432075  0.2137762891
2
step 244
 H  0.5577677340 -0.2697639066 -0.2114411114
 H  0.4422322705  0.2697639066  0.2114411114
2
step 245
 H  0.5681955729 -0.2686181961 -0.2105431027
 H  0.4318044316  0.2686181961  0.2105431027
2
step 246
 H  0.5791982583 -0.2692125079 -0.2110089247
 H  0.4208017461  0.2692125079  0.2110089247
2
step 247
 H  0.5906585045 -0.2708774925 -0.2123139406
 H  0.4093414999  0.2708774925  0.2123139406
2
step 248
 H  0.6022928591 -0.2726079465 -0.2136702715
 H  0.3977071454  0.2726079465  0.2136702715
2
step 249
 H  0.6137277979 -0.2733730747 -0.2142699795
 H  0.3862722066  0.2733730747  0.2142699795
2
step 250
 H  0.6246031180 -0.2723709225 -0.2134844919
 H  0.3753968865  0.2723709225  0.2134844919
2
step 251
 H  0.6346691295 -0.2691809183 -0.2109841648
 H  0.3653308750  0.2691809183  0.2109841648
2
step 252
 H  0.6438637484 -0.2638265467 -0.2067874051
 H  0.3561362561  0.2638265467  0.2067874051
2
step 253
 H  0.6523644884 -0.2567677611 -0.2012547248
 H  0.3476355161  0.2567677611  0.2012547248
2
step 254
 H  0.6606026196 -0.2488210947 -0.1950261229
 H  0.3393973849  0.2488210947  0.1950261229
2
step 255
 H  0.6692110939 -0.2409865618 -0.1888854113
 H  0.3307889106  0.2409865618  0.1888854113
2
step 256
 H  0.6788759963 -0.2341768304 -0.1835479397
 H  0.3211240082  0.2341768304  0.1835479397
2
step 257
 H  0.6901021716 -0.2289129348 -0.1794220952
 H  0.3098978329  0.2289129348  0.1794220952
2
step 258
 H  0.7029836614 -0.2251272331 -0.1764548600
 H  0.2970163431  0.2251272331  0.1764548600
2
step 259
 H  0.7171110392 -0.2221936418 -0.1741555093
 H  0.2828889653  0.2221936418  0.1741555093
2
step 260
 H  0.7316748090 -0.2191638683 -0.1717807710
 H  0.2683251955  0.2191638683  0.1717807710
2
step 261
 H  0.7456987969 -0.2150668876 -0.1685695552
 H  0.2543012076  0.2150668876  0.1685695552
2
step 262
 H  0.7582898815 -0.2091421894 -0.1639257731
 H  0.2417101230  0.2091421894  0.1639257731
2
step 263
 H  0.7688361658 -0.2009669088 -0.1575179833
 H  0.2311638387  0.2009669088  0.1575179833
2
step 264
 H  0.7771446486 -0.1904980395 -0.1493124773
 H  0.2228553559  0.1904980395  0.1493124773
2
step 265
 H  0.7835277060 -0.1780561446 -0.1395605126
 H  0.2164722984  0.1780561446  0.1395605126
2
step 266
 H  0.7888237842 -0.1642527823 -0.1287414290
 H  0.2111762203  0.1642527823  0.1287414290
2
step 267
 H  0.7942942063 -0.1498432313 -0.1174472143
 H  0.2057057982  0.1498432313  0.1174472143
2
step 268
 H  0.8013206157 -0.1355006393 -0.1062054821
 H  0.1986793888  0.1355006393  0.1062054821
2
step 269
 H  0.8109085812 -0.1215753207 -0.0952908091
 H  0.1890914232  0.1215753207  0.0952908091
2
step 270
 H  0.8231940938 -0.1079748315 -0.0846307376
 H  0.1768059106  0.1079748315  0.0846307376
2
step 271
 H  0.8372646585 -0.0942601077 -0.0738811288
 H  0.1627353459  0.0942601077  0.0738811288
2
step 272
 H  0.8514254857 -0.0798912555 -0.0626188138
 H  0.1485745188  0.0798912555  0.0626188138
2
step 273
 H  0.8637225993 -0.0644568954 -0.0505213532
 H  0.1362774052  0.0644568954  0.0505213532
2
step 274
 H  0.8724395100 -0.0477845888 -0.0374535893
 H  0.1275604945  0.0477845888  0.0374535893
2
step 275
 H  0.8764289896 -0.0299381462 -0.0234655369
 H  0.1235710149  0.0299381462  0.0234655369
2
step 276
 H  0.8752911934 -0.0111493318 -0.0087388529
 H  0.1247088111  0.0111493318  0.0087388529
2
step 277
 H  0.8694469775  0.0082820297  0.0064914598
 H  0.1305530269 -0.0082820297 -0.0064914598
2
step 278
 H  0.8601091302  0.0281044934  0.0220283187
 H  0.1398908742 -0.0281044934 -0.0220283187
2
step 279
 H  0.8490838365  0.0482277374  0.0378009294
 H  0.1509161680 -0.0482277374 -0.0378009294
2
step 280
 H  0.8383126656  0.0687768621  0.0539073457
 H  0.1616873389 -0.0687768621 -0.0539073457
2
step 281
 H  0.8291922410  0.0900056196  0.0705464585
 H  0.1708077635 -0.0900056196 -0.0705464585
2
step 282
 H  0.8219822455  0.1120490476  0.0878241105
 H  0.1780177590 -0.1120490476 -0.0878241105
2
step 283
 H  0.8157226019  0.1346594181  0.1055461324
 H  0.1842774026 -0.1346594181 -0.1055461324
2
step 284
 H  0.8087293340  0.1571346803  0.1231622564
 H  0.1912706705 -0.1571346803 -0.1231622564
2
step 285
 H  0.7992870163  0.1784838987  0.1398957865
 H  0.2007129881 -0.1784838987 -0.1398957865
2
step 286
 H  0.7861463173  0.1976946104  0.1549531539
 H  0.2138536872 -0.1976946104 -0.1549531539
2
step 287
 H  0.7687284728  0.2139681621  0.1677083734
 H  0.2312715317 -0.2139681621 -0.1677083734
2
step 288
 H  0.7471305693  0.2268830160  0.1778310437
 H  0.2528694351 -0.2268830160 -0.1778310437
2
step 289
 H  0.7220331743  0.2365011027  0.1853697058
 H  0.2779668302 -0.2365011027 -0.1853697058
2
step 290
 H  0.6945463347  0.2434233694  0.1907953826
 H  0.3054536698 -0.2434233694 -0.1907953826
2
step 291
 H  0.6659777973  0.2487533999  0.1949730636
 H  0.3340222072 -0.2487533999 -0.1949730636
2
step 292
 H  0.6375136106  0.2538830377  0.1989936768
 H  0.3624863939 -0.2538830377 -0.1989936768
2
step 293
 H  0.6098903288  0.2600489486  0.2038265214
 H  0.3901096757 -0.2600489486 -0.2038265214
2
step 294
 H  0.5832475310  0.2677942758  0.2098973135
 H  0.4167524735 -0.2677942758 -0.2098973135
2
step 295
 H  0.5572953403  0.2766722485  0.2168558739
 H  0.4427046642 -0.2766722485 -0.2168558739
2
step 296
 H  0.5316746070  0.2854248048  0.2237161327
 H  0.4683253975 -0.2854248048 -0.2237161327
2
step 297
 H  0.5062374643  0.2924888539  0.2292529387
 H  0.4937625401 -0.2924888539 -0.2292529387
2
step 298