2
step 0
 H -0.1566674969  0.0000000000  0.0000000000
Cl  1.1566675014  0.0000000000  0.0000000000
2
step 1
 H -0.1537376995 -0.0011079313  0.0004686316
Cl  1.1537377040  0.0011079313 -0.0004686316
2
step 2
 H -0.1514343365 -0.0021913569  0.0009268978
Cl  1.1508724457  0.0021974951 -0.0009294942
2
step 3
 H -0.1502694847 -0.0032517159  0.0013754074
Cl  1.1480853887  0.0032690716 -0.0013827485
2
step 4
 H -0.1506319660 -0.0042930262  0.0018158597
Cl  1.1453866035  0.0043231472 -0.0018286003
2
step 5
 H -0.1527405995 -0.0053198468  0.0022501832
Cl  1.1427812525  0.0053602522 -0.0022672739
2
step 6
 H -0.1566179931 -0.0063359254  0.0026799631
Cl  1.1402688711  0.0063809119 -0.0026989914
2
step 7
 H -0.1620902237 -0.0073431625  0.0031060032
Cl  1.1378433895  0.0073856056 -0.0031239557
2
step 8
 H -0.1688124463 -0.0083409585  0.0035280499
Cl  1.1354938857  0.0083747389 -0.0035423383
2
step 9
 H -0.1763150874 -0.0093260388  0.0039447181
Cl  1.1332059110  0.0093486337 -0.0039542753
2
step 10
 H -0.1840617554 -0.0102927636  0.0043536224
Cl  1.1309631330  0.0103075388 -0.0043598720
2
step 11
 H -0.1915092808 -0.0112338324  0.0047516747
Cl  1.1287490291  0.0112516547 -0.0047592131
2
step 12
 H -0.1981620384 -0.0121412354  0.0051354870
Cl  1.1265484147  0.0121811671 -0.0051523773
2
step 13
 H -0.2036156863 -0.0130072978  0.0055018132
Cl  1.1243486763  0.0130962802 -0.0055394509
2
step 14
 H -0.2075883810 -0.0138256883  0.0058479752
Cl  1.1221406583  0.0139972458 -0.0059205404
2
step 15
 H -0.2099395597 -0.0145923027  0.0061722369
Cl  1.1199192078  0.0148843847 -0.0062957815
2
step 16
 H -0.2106772790 -0.0153059639  0.0064741006
Cl  1.1176834002  0.0157580997 -0.0066653445
2
step 17
 H -0.2099550695 -0.0159688933  0.0067545058
Cl  1.1154364694  0.0166188818 -0.0070294372
2
step 18
 H -0.2080587611 -0.0165869077  0.0070159129
Cl  1.1131854474  0.0174673101 -0.0073883045
2
step 19
 H -0.2053832441 -0.0171692868  0.0072622470
Cl  1.1109405102  0.0183040464 -0.0077422264
2
step 20
 H -0.2023991213 -0.0177282553  0.0074986789
Cl  1.1087140251  0.0191298211 -0.0080915117
2
step 21
 H -0.1996099968 -0.0182780459  0.0077312287
Cl  1.1065193253  0.0199454116 -0.0084364893
2
step 22
 H -0.1975028044 -0.0188335584  0.0079661988
Cl  1.1043692830  0.0207516090 -0.0087774939
2
step 23
 H -0.1964957911 -0.0194087161  0.0082094784
Cl  1.1022748200  0.0215491762 -0.0091148480
2
step 24
 H -0.1968908095 -0.0200147182  0.0084658046
Cl  1.1002435476  0.0223387986 -0.0094488416
2
step 25
 H -0.1988374559 -0.0206584628  0.0087380950
Cl  1.0982787532  0.0231210376 -0.0097797123
2
step 26
 H -0.2023155306 -0.0213414325  0.0090269768
Cl  1.0963789139  0.0238962942 -0.0101076295
2
step 27
 H -0.2071392272 -0.0220592726  0.0093306080
Cl  1.0945378300  0.0246647911 -0.0104326875
2
step 28
 H -0.2129821993 -0.0228021547  0.0096448316
Cl  1.0927453475  0.0254265801 -0.0107549082
2
step 29
 H -0.2194186648 -0.0235558600  0.0099636330
Cl  1.0909885284  0.0261815715 -0.0110742537
2
step 30
 H -0.2259732925 -0.0243033843  0.0102798201
Cl  1.0892530626  0.0269295826 -0.0113906467
2
step 31
 H -0.2321723022 -0.0250268048  0.0105858117
Cl  1.0875247095  0.0276703952 -0.0117039948
2
step 32
 H -0.2375896521 -0.0257091564  0.0108744321
Cl  1.0857905979  0.0284038134 -0.0120142153
2
step 33
 H -0.2418844483 -0.0263361230  0.0111396257
Cl  1.0840402819  0.0291297152 -0.0123212564
2
step 34
 H -0.2448278911 -0.0268974241  0.0113770443
Cl  1.0822665051  0.0298480925 -0.0126251149
2
step 35
 H -0.2463195612 -0.0273878333  0.0115844770
Cl  1.0804656678  0.0305590781 -0.0129258468
2
step 36
 H -0.2463935093 -0.0278078006  0.0117621144
Cl  1.0786380103  0.0312629601 -0.0132235741
2
step 37
 H -0.2452146047 -0.0281636550  0.0119126333
Cl  1.0767875179  0.0319601840 -0.0135184852
2
step 38
 H -0.2430652797 -0.0284673516  0.0120410906
Cl  1.0749215517  0.0326513428 -0.0138108308
2
step 39
 H -0.2403225905 -0.0287357218  0.0121546055
Cl  1.0730501964  0.0333371552 -0.0141009150
2
step 40
 H -0.2374257584 -0.0289891922  0.0122618182
Cl  1.0711853329  0.0340184319 -0.0143890807
2
step 41
 H -0.2348353114 -0.0292499850  0.0123721280
Cl  1.0693394656  0.0346960273 -0.0146756893
2
step 42
 H -0.2329865773 -0.0295398965  0.0124947545
Cl  1.0675243897  0.0353707813 -0.0149610960
2
step 43
 H -0.2322422554 -0.0298778642  0.0126377077
Cl  1.0657498336  0.0360434532 -0.0152456221
2
step 44
 H -0.2328503876 -0.0302776380  0.0128068036
Cl  1.0640222616  0.0367146562 -0.0155295268
2
step 45
 H -0.2349144523 -0.0307459295  0.0130048811
Cl  1.0623440276  0.0373848036 -0.0158129851
2
step 46
 H -0.2383809445 -0.0312813765  0.0132313639
Cl  1.0607130300  0.0380540762 -0.0160960733
2
step 47
 H -0.2430468010 -0.0318745300  0.0134822553
Cl  1.0591229316  0.0387224184 -0.0163787680
2
step 48
 H -0.2485852356 -0.0325088730  0.0137505691
Cl  1.0575638999  0.0393895653 -0.0166609571
2
step 49
 H -0.2545852216 -0.0331626898  0.0140271198
Cl  1.0560237282  0.0400550964 -0.0169424627
2
step 50
 H -0.2605980207 -0.0338114674  0.0143015391
Cl  1.0544891522  0.0407185059 -0.0172230710
2
step 51
 H -0.2661841228 -0.0344304788  0.0145633679
Cl  1.0529471734  0.0413792808 -0.0175025648
2
step 52
 H -0.2709553364 -0.0349972391  0.0148030956
Cl  1.0513862452  0.0420369744 -0.0177807554
2
step 53
 H -0.2746087430 -0.0354936168  0.0150130529
Cl  1.0497972305  0.0426912695 -0.0180575085
2
step 54
 H -0.2769510428 -0.0359074787  0.0151881078
Cl  1.0481740910  0.0433420264 -0.0183327649
2
step 55
 H -0.2779130284 -0.0362338127  0.0153261402
Cl  1.0465143013  0.0439893135 -0.0186065537
2
step 56
 H -0.2775544119 -0.0364753059  0.0154282868
Cl  1.0448189912  0.0446334218 -0.0188789980
2
step 57
 H -0.2760591978 -0.0366423542  0.0154989447
Cl  1.0430928195  0.0452748635 -0.0191503144
2
step 58
 H -0.2737215466 -0.0367524673  0.0155455202
Cl  1.0413435741  0.0459143543 -0.0194208055
2
step 59
 H -0.2709219992 -0.0368290268  0.0155779032
Cl  1.0395814923  0.0465527791 -0.0196908457
2
step 60
 H -0.2680943529 -0.0368993801  0.0156076612
Cl  1.0378183099  0.0471911415 -0.0199608596
2
step 61
 H -0.2656845808 -0.0369923221  0.0156469737
Cl  1.0360660783  0.0478304979 -0.0202312939
2
step 62
 H -0.2641048990 -0.0371351366  0.0157073812
Cl  1.0343358436  0.0484718790 -0.0205025846
2
step 63
 H -0.2636879842 -0.0373505040  0.0157984771
Cl  1.0326363302  0.0491162072 -0.0207751219
2
step 64
 H -0.2646477109 -0.0376537002  0.0159267227
Cl  1.0309728148  0.0497642210 -0.0210492181
2
step 65
 H -0.2670528377 -0.0380505441  0.0160945794
Cl  1.0293463732  0.0504164183 -0.0213250838
2
step 66
 H -0.2708183915 -0.0385364715  0.0163001164
Cl  1.0277536320  0.0510730313 -0.0216028173
2
step 67
 H -0.2757163561 -0.0390969148  0.0165371722
Cl  1.0261870700  0.0517340386 -0.0218824094
2
step 68
 H -0.2814035946 -0.0397089227  0.0167960386
Cl  1.0246358032  0.0523992141 -0.0221637647
2
step 69
 H -0.2874619531 -0.0403437288  0.0170645482
Cl  1.0230867101  0.0530682060 -0.0224467342
2
step 70
 H -0.2934440536 -0.0409698516  0.0173293850
Cl  1.0215257118  0.0537406331 -0.0227311567
2
step 71
 H -0.2989185723 -0.0415562971  0.0175774391
Cl  1.0199390329  0.0544161861 -0.0230169014
2
step 72
 H -0.3035102970 -0.0420755160  0.0177970578
Cl  1.0183143129  0.0550947216 -0.0233039077
2
step 73
 H -0.3069321955 -0.0425058898  0.0179790969
Cl  1.0166414936  0.0557763426 -0.0235922190
2
step 74
 H -0.3090083942 -0.0428336342  0.0181177259
Cl  1.0149134545  0.0564614587 -0.0238820087
2
step 75
 H -0.3096879964 -0.0430540815  0.0182109705
Cl  1.0131263932  0.0571508280 -0.0241735974
2
step 76
 H -0.3090499841 -0.0431723293  0.0182609868
Cl  1.0112799594  0.0578455771 -0.0244674616
2
step 77
 H -0.3072992559 -0.0432032289  0.0182740567
Cl  1.0093771397  0.0585472018 -0.0247642341
2
step 78
 H -0.3047534532 -0.0431706577  0.0182602798
Cl  1.0074238818  0.0592575471 -0.0250646952
2
step 79
 H -0.3018200213 -0.0431059960  0.0182329292
Cl  1.0054284388  0.0599787649 -0.0253697552
2
step 80
 H -0.2989632738 -0.0430457540  0.0182074481
Cl  1.0034004290  0.0607132484 -0.0256804262
2
step 81
 H -0.2966623495 -0.0430283748  0.0182000971
Cl  1.0013496359  0.0614635424 -0.0259977848
2
step 82
 H -0.2953628292 -0.0430903922  0.0182263292
Cl  0.9992846337  0.0622322341 -0.0263229252
2
step 83
 H -0.2954270323 -0.0432623163  0.0182990494
Cl  0.9972113860  0.0630218312 -0.0266569082
2
step 84
 H -0.2970898383 -0.0435647942  0.0184269912
Cl  0.9951320171  0.0638346430 -0.0270007105
2
step 85
 H -0.3004273488 -0.0440056693  0.0186134722
Cl  0.9930439675  0.0646726786 -0.0273551818
2
step 86
 H -0.3053442174 -0.0445784805  0.0188557592
Cl  0.9909396965  0.0655375806 -0.0277210172
2
step 87
 H -0.3115821889 -0.0452627023  0.0191451706
Cl  0.9888069987  0.0664306044 -0.0280987475
2
step 88
 H -0.3187483136 -0.0460256953  0.0194679006
Cl  0.9866298842  0.0673526439 -0.0284887508
2
step 89
 H -0.3263578315 -0.0468260302  0.0198064255
Cl  0.9843898717  0.0683042978 -0.0288912803
2
step 90
 H -0.3338849127 -0.0476176629  0.0201412695
Cl  0.9820674982  0.0692859635 -0.0293065043
2
step 91
 H -0.3408145635 -0.0483544103  0.0204528981
Cl  0.9796438556  0.0702979411 -0.0297345495
2
step 92
 H -0.3466905222 -0.0489942731  0.0207235466
Cl  0.9771020107  0.0713405344 -0.0301755445
2
step 93
 H -0.3511559728 -0.0495033040  0.0209388560
Cl  0.9744282230  0.0724141377 -0.0306296561
2
step 94
 H -0.3539855761 -0.0498588525  0.0210892456
Cl  0.9716129229  0.0735193031 -0.0310971178
2
step 95
 H -0.3551081846 -0.0500520918  0.0211709817
Cl  0.9686514280  0.0746567855 -0.0315782489
2
step 96
 H -0.3546195981 -0.0500897266  0.0211869005
Cl  0.9655443751  0.0758275644 -0.0320734638
2
step 97
 H -0.3527840578 -0.0499947116  0.0211467111
Cl  0.9622978194  0.0770328441 -0.0325832717
2
step 98
 H -0.3500223442 -0.0498057170  0.0210667704
Cl  0.9589229268  0.0782740255 -0.0331082653
2
step 99
 H -0.3468839601 -0.0495750170  0.0209691892
Cl  0.9554351799  0.0795526481 -0.0336490958
2
step 100
 H -0.3440016186 -0.0493645209  0.0208801538
Cl  0.9518530441  0.0808702922 -0.0342064315
2
step 101
 H -0.3420286695 -0.0492398795  0.0208274331
Cl  0.9481961205  0.0822284367 -0.0347808980
2
step 102
 H -0.3415641882 -0.0492630080  0.0208372160
Cl  0.9444829378  0.0836282763 -0.0353730007
2
step 103
 H -0.3430753188 -0.0494838970  0.0209306474
Cl  0.9407286773  0.0850705141 -0.0359830369
2
step 104
 H -0.3468302333 -0.0499330615  0.0211206346
Cl  0.9369432274  0.0865551615 -0.0366110116
2
step 105
 H -0.3528555106 -0.0506161492  0.0214095663
Cl  0.9331299631  0.0880813888 -0.0372565736
2
step 106
 H -0.3609276400 -0.0515119341  0.0217884644
Cl  0.9292855131  0.0896474640 -0.0379189904
2
step 107
 H -0.3706006307 -0.0525741820  0.0222377730
Cl  0.9254005492  0.0912508051 -0.0385971700
2
step 108
 H -0.3812633084 -0.0537369689  0.0227296074
Cl  0.9214613931  0.0928881389 -0.0392897277
2
step 109
 H -0.3922138007 -0.0549308113  0.0232345776
Cl  0.9174520771  0.0945559819 -0.0399951902
2
step 110
 H -0.4027388725 -0.0560681349  0.0237156416
Cl  0.9133565162  0.0962502583 -0.0407118334
2
step 111
 H -0.4121853568 -0.0570787189  0.0241430974
Cl  0.9091604490  0.0979673418 -0.0414381236
2
step 112
 H -0.4200189742 -0.0578915345  0.0244869013
Cl  0.9048530392  0.0997035664 -0.0421725101
2
step 113
 H -0.4258671054 -0.0584576589  0.0247263600
Cl  0.9004280593  0.1014558896 -0.0429137060
2
step 114
 H -0.4295463796 -0.0587511293  0.0248504918
Cl  0.8958846843  0.1032219139 -0.0436606970
2
step 115
 H -0.4310770832 -0.0587706587  0.0248587524
Cl  0.8912279448  0.1049999182 -0.0444127554
2
step 116
 H -0.4306846674 -0.0585405570  0.0247614242
Cl  0.8864688252  0.1067888640 -0.0451694419
2
step 117
 H -0.4287877484 -0.0581101672  0.0245793784
Cl  0.8816239639  0.1085883631 -0.0459305921
2
step 118
 H -0.4259685299 -0.0575603189  0.0243468042
Cl  0.8767148192  0.1103988587 -0.0466963936
2
step 119
 H -0.4229330962 -0.0569738241  0.0240987292
Cl  0.8717665012  0.1122208014 -0.0474670370
2
step 120
 H -0.4204395581 -0.0564563692  0.0238798567
Cl  0.8668056536  0.1140552716 -0.0482429793
2
step 121
 H -0.4192246660 -0.0560996974  0.0237289921
Cl  0.8618582772  0.1159029668 -0.0490245155
2
step 122
 H -0.4199071993 -0.0559964826  0.0236853344
Cl  0.8569469129  0.1177646507 -0.0498119686
2
step 123
 H -0.4229119561 -0.0562009406  0.0237718159
Cl  0.8520884564  0.1196400429 -0.0506052201
2
step 124
 H -0.4284032327 -0.0567382283  0.0239990773
Cl  0.8472922976  0.1215280744 -0.0514038176
2
step 125
 H -0.4362609183 -0.0575958296  0.0243618246
Cl  0.8425597081  0.1234266169 -0.0522068612
2
step 126
 H -0.4460978530 -0.0587233838  0.0248387563
Cl  0.8378844060  0.1253324515 -0.0530129891
2
step 127
 H -0.4573142069 -0.0600484067  0.0253992132
Cl  0.8332541382  0.1272417017 -0.0538205617
2
step 128
 H -0.4691801964 -0.0614607186  0.0259965914
Cl  0.8286530133  0.1291493978 -0.0546274770
2
step 129
 H -0.4809229872 -0.0628552779  0.0265864606
Cl  0.8240639023  0.1310507213 -0.0554316969
2
step 130
 H -0.4918108246 -0.0641236224  0.0271229437
Cl  0.8194707351  0.1329407979 -0.0562311595
2
step 131
 H -0.5012212448 -0.0651644161  0.0275631776
Cl  0.8148603517  0.1348150303 -0.0570239203
2
step 132
 H -0.5086898531 -0.0659033586  0.0278757347
Cl  0.8102238372  0.1366696841 -0.0578083999
2
step 133
 H -0.5139411363 -0.0662950641  0.0280414179
Cl  0.8055573928  0.1385019432 -0.0585834069
2
step 134
 H -0.5169038324 -0.0663253461  0.0280542266
Cl  0.8008628094  0.1403099609 -0.0593481603
2
step 135
 H -0.5177126892 -0.0660122033  0.0279217738
Cl  0.7961475738  0.1420928664 -0.0601022918
2
step 136
 H -0.5166976864 -0.0654050126  0.0276649449
Cl  0.7914246135  0.1438507228 -0.0608458281
2
step 137
 H -0.5143601369 -0.0645815978  0.0273166578
Cl  0.7867116384  0.1455844358 -0.0615791522
2
step 138
 H -0.5113317967 -0.0636508655  0.0269229776
Cl  0.7820299580  0.1472958357 -0.0623030384
2
step 139
 H -0.5083267633 -0.0627223547  0.0265302371
Cl  0.7774030548  0.1489868350 -0.0630182954
2
step 140
 H -0.5060639465 -0.0619208646  0.0261912237
Cl  0.7728542998  0.1506598734 -0.0637259555
2
step 141
 H -0.5051956267 -0.0613501607  0.0259498280
Cl  0.7684048487  0.1523169142 -0.0644268489
2
step 142
 H -0.5062226933 -0.0610951909  0.0258419811
Cl  0.7640711917  0.1539595222 -0.0651216375
2
step 143
 H -0.5094308014 -0.0612072555  0.0258893821
Cl  0.7598633448  0.1555884396 -0.0658106352
2
step 144
 H -0.5148526198 -0.0616956169  0.0260959487
Cl  0.7557838227  0.1572033300 -0.0664936999
2
step 145
 H -0.5222660120 -0.0625258011  0.0264470992
Cl  0.7518276507  0.1588027062 -0.0671702024
2
step 146
 H -0.5312287079 -0.0636244446  0.0269118023
Cl  0.7479834021  0.1603840483 -0.0678390768
2
step 147
 H -0.5411413700 -0.0648894036  0.0274468533
Cl  0.7442350100  0.1619440837 -0.0684989390
2
step 148
 H -0.5513255367 -0.0662028942  0.0280024323
Cl  0.7405639658  0.1634791684 -0.0691482475
2
step 149
 H -0.5611022825 -0.0674452106  0.0285279060
Cl  0.7369515122  0.1649856923 -0.0697854754
2
step 150
 H -0.5698607342 -0.0685070476  0.0289770407
Cl  0.7333805464  0.1664604473 -0.0704092657
2
step 151
 H -0.5771105752 -0.0692992743  0.0293121360
Cl  0.7298370860  0.1679009150 -0.0710185532
2
step 152
 H -0.5825171646 -0.0697597892  0.0295069241
Cl  0.7263112699  0.1693054606 -0.0716126464
2
step 153
 H -0.5859206972 -0.0698576004  0.0295482961
Cl  0.7227979368  0.1706734368 -0.0721912716
2
step 154
 H -0.5873417534 -0.0695944659  0.0294369958
Cl  0.7192968348  0.1720052100 -0.0727545836
2
step 155
 H -0.5869751344 -0.0690043690  0.0291873973
Cl  0.7158125033  0.1733021243 -0.0733031511
2
step 156
 H -0.5851727727 -0.0681509126  0.0288264032
Cl  0.7123538326  0.1745664100 -0.0738379173
2
step 157
 H -0.5824154850 -0.0671225372  0.0283914220
Cl  0.7089332858  0.1758010382 -0.0743601391
2
step 158
 H -0.5792730356 -0.0660254085  0.0279273597
Cl  0.7055657654  0.1770095180 -0.0748713006
2
step 159
 H -0.5763528488 -0.0649739820  0.0274826284
Cl  0.7022671411  0.1781956333 -0.0753730024
2
step 160
 H -0.5742398854 -0.0640796710  0.0271043537
Cl  0.6990525207  0.1793631278 -0.0758668280
2
step 161
 H -0.5734332752 -0.0634386473  0.0268332142
Cl  0.6959344398  0.1805153622 -0.0763541989
2
step 162
 H -0.5742882373 -0.0631204046  0.0266986043
Cl  0.6929212193  0.1816549849 -0.0768362353
2
step 163
 H -0.5769731631 -0.0631590289  0.0267149415
Cl  0.6900157755  0.1827836727 -0.0773136465
2
step 164
 H -0.5814502957 -0.0635488945  0.0268798465
Cl  0.6872151142  0.1839019920 -0.0777866720
2
step 165
 H -0.5874840903 -0.0642457061  0.0271745832
Cl  0.6845106120  0.1850094119 -0.0782550873
2
step 166
 H -0.5946754145 -0.0651726592  0.0275666648
Cl  0.6818890207  0.1861044672 -0.0787182726
2
step 167
 H -0.6025144446 -0.0662304263  0.0280140780
Cl  0.6793339840  0.1871850375 -0.0791753312
2
step 168
 H -0.6104422943 -0.0673090754  0.0284703239
Cl  0.6768277843  0.1882486884 -0.0796252331
2
step 169
 H -0.6179116574 -0.0683000125  0.0288894695
Cl  0.6743530509  0.1892930165 -0.0800669619
2
step 170
 H -0.6244392589 -0.0691064941  0.0292305943
Cl  0.6718942355  0.1903159551 -0.0804996434
2
step 171
 H -0.6296462492 -0.0696518907  0.0294612856
Cl  0.6694387530  0.1913160110 -0.0809226460
2
step 172
 H -0.6332855494 -0.0698854445  0.0295600739
Cl  0.6669777646  0.1922924272 -0.0813356495
2
step 173
 H -0.6352568841 -0.0697856162  0.0295178487
Cl  0.6645066221  0.1932452709 -0.0817386823
2
step 174
 H -0.6356107727 -0.0693612299  0.0293383422
Cl  0.6620250044  0.1941754574 -0.0821321317
2
step 175
 H -0.6345424281 -0.0686505681  0.0290377472
Cl  0.6595367664  0.1950847166 -0.0825167291
2
step 176
 H -0.6323758360 -0.0677184388  0.0286434762
Cl  0.6570495005  0.1959755031 -0.0828935131
2
step 177
 H -0.6295377926 -0.0666511373  0.0281920301
Cl  0.6545738011  0.1968508531 -0.0832637677
2
step 178
 H -0.6265217955 -0.0655492477  0.0277259540
Cl  0.6521222294  0.1977141823 -0.0836289378
2
step 179
 H -0.6238427148 -0.0645184425  0.0272899451
Cl  0.6497080073  0.1985690309 -0.0839905208
2
step 180
 H -0.6219850977 -0.0636588415  0.0269263520
Cl  0.6473435297  0.1994187681 -0.0843499417
2
step 181
 H -0.6213503604 -0.0630539978  0.0266705158
Cl  0.6450388511  0.2002662831 -0.0847084227
2
step 182
 H -0.6222101199 -0.0627610197  0.0265465923
Cl  0.6428003567  0.2011137055 -0.0850668646
2
step 183
 H -0.6246734655 -0.0628034773  0.0265645510
Cl  0.6406298400  0.2019622001 -0.0854257599
2
step 184
 H -0.6286743521 -0.0631684389  0.0267189221
Cl  0.6385241605  0.2028118767 -0.0857851552
2
step 185
 H -0.6339816445 -0.0638082366  0.0269895430
Cl  0.6364755432  0.2036618351 -0.0861446697
2
step 186
 H -0.6402297857 -0.0646466081  0.0273441566
Cl  0.6344724593  0.2045103363 -0.0865035679
2
step 187
 H -0.6469641789 -0.0655880323  0.0277423592
Cl  0.6325009137  0.2053550691 -0.0868608721
2
step 188
 H -0.6536934194 -0.0665286342  0.0281402140
Cl  0.6305459185  0.2061934644 -0.0872154956
2
step 189
 H -0.6599407821 -0.0673670623  0.0284948515
Cl  0.6285929402  0.2070230109 -0.0875663764
2
step 190
 H -0.6652892614 -0.0680141165  0.0287685418
Cl  0.6266291644  0.2078415348 -0.0879125948
2
step 191
 H -0.6694169237 -0.0684004106  0.0289319361
Cl  0.6246444917  0.2086474211 -0.0882534677
2
step 192
 H -0.6721214565 -0.0684817985  0.0289663615
Cl  0.6226322350  0.2094397682 -0.0885886138
2
step 193
 H -0.6733340949 -0.0682425725  0.0288651739
Cl  0.6205895221  0.2102184763 -0.0889179910
2
step 194
 H -0.6731235146 -0.0676965282  0.0286342087
Cl  0.6185174181  0.2109842733 -0.0892419070
2
step 195
 H -0.6716900792 -0.0668859530  0.0282913524
Cl  0.6164207724  0.2117386818 -0.0895610059
2
step 196
 H -0.6693503975 -0.0658785029  0.0278652223
Cl  0.6143077861  0.2124839284 -0.0898762295
2
step 197
 H -0.6665119364 -0.0647618875  0.0273929174
Cl  0.6121892876  0.2132227928 -0.0901887536
2
step 198
 H -0.6636378104 -0.0636363616  0.0269168437
Cl  0.6100777228  0.2139583985 -0.0904998993
2
step 199
 H -0.6612030523 -0.0626052841  0.0264807196
Cl  0.6079858968  0.2146939490 -0.0908110217
2
step 200
 H -0.6596455808 -0.0617644225  0.0261250529
Cl  0.6059255660  0.2154324300 -0.0911233837
2
step 201
 H -0.6593172494 -0.0611911685  0.0258825785
Cl  0.6039060370  0.2161763055 -0.0914380274
2
step 202
 H -0.6604419584 -0.0609351989  0.0257743088
Cl  0.6019329745  0.2169272532 -0.0917556624
2
step 203
 H -0.6630879226 -0.0610121632  0.0258068630
Cl  0.6000076198  0.2176859820 -0.0920765887
2
step 204
 H -0.6671593090 -0.0614015866  0.0259715810
Cl  0.5981265654  0.2184521680 -0.0924006693
2
step 205
 H -0.6724088946 -0.0620494086  0.0262455961
Cl  0.5962821254  0.2192245224 -0.0927273589
2
step 206
 H -0.6784692632 -0.0628746603  0.0265946602
Cl  0.5944632280  0.2200009798 -0.0930557841
2
step 207
 H -0.6848967571 -0.0637790472  0.0269771968
Cl  0.5926566621  0.2207789711 -0.0933848580
2
step 208
 H -0.6912209247 -0.0646578480  0.0273489111
Cl  0.5908484728  0.2215557379 -0.0937134140
2
step 209
 H -0.6969926721 -0.0654106278  0.0276673211
Cl  0.5890253161  0.2223286423 -0.0940403363
2
step 210
 H -0.7018261255 -0.0659506399  0.0278957349
Cl  0.5871756367  0.2230954386 -0.0943646750
2
step 211
 H -0.7054313981 -0.0662122727  0.0280064001
Cl  0.5852905933  0.2238544881 -0.0946857370
2
step 212
 H -0.7076372715 -0.0661562913  0.0279827211
Cl  0.5833647030  0.2246049077 -0.0950031487
2
step 213
 H -0.7084038455 -0.0657728646  0.0278205398
Cl  0.5813962093  0.2253466532 -0.0953168914
2
step 214
 H -0.7078254916 -0.0650824264  0.0275284989
Cl  0.5793871763  0.2260805396 -0.0956273099
2
step 215
 H -0.7061242092 -0.0641343705  0.0271274913
Cl  0.5773433095  0.2268082006 -0.0959350952
2
step 216
 H -0.7036331241 -0.0630034977  0.0266491559
Cl  0.5752734914  0.2275319857 -0.0962412410
2
step 217
 H -0.7007697973 -0.0617841158  0.0261333830
Cl  0.5731890202  0.2282547931 -0.0965469734
2
step 218
 H -0.6979995852 -0.0605818219  0.0256248380
Cl  0.5711025575  0.2289798407 -0.0968536533
2
step 219
 H -0.6957906724 -0.0595033130  0.0251686514
Cl  0.5690268356  0.2297103811 -0.0971626564
2
step 220
 H -0.6945644608 -0.0586450463  0.0248056227
Cl  0.5669732331  0.2304493845 -0.0974752393
2
step 221
 H -0.6946471614 -0.0580820761  0.0245674981
Cl  0.5649503902  0.2311992250 -0.0977924061
2
step 222
 H -0.6962298414 -0.0578587355  0.0244730298
Cl  0.5629630718  0.2319614154 -0.0981147966
2
step 223
 H -0.6993439095 -0.0579827922  0.0245255031
Cl  0.5610114785  0.2327364385 -0.0984426150
2
step 224
 H -0.7038567397 -0.0584241994  0.0247122091
Cl  0.5590911327  0.2335237072 -0.0987756131
2
step 225
 H -0.7094883001 -0.0591186955  0.0250059664
Cl  0.5571933613  0.2343216634 -0.0991131318
2
step 226
 H -0.7158455406 -0.0599755502  0.0253683979
Cl  0.5553062754  0.2351279973 -0.0994541941
2
step 227
 H -0.7224682739 -0.0608880487  0.0257543656
Cl  0.5534160684  0.2359399482 -0.0997976322
2
step 228
 H -0.7288792176 -0.0617450344  0.0261168525
Cl  0.5515084236  0.2367546378 -0.1001422288
2
step 229
 H -0.7346316770 -0.0624419990  0.0264116539
Cl  0.5495698519  0.2375693931 -0.1004868531
2
step 230
 H -0.7393503176 -0.0628906507  0.0266014241
Cl  0.5475888338  0.2383820245 -0.1008305791
2
step 231
 H -0.7427626477 -0.0630263868  0.0266588377
Cl  0.5455567034  0.2391910424 -0.1011727766
2
step 232
 H -0.7447205012 -0.0628134808  0.0265687829
Cl  0.5434682562  0.2399958061 -0.1015131748
2
step 233
 H -0.7452116634 -0.0622479945  0.0263295941
Cl  0.5413220815  0.2407966059 -0.1018518962
2
step 234
 H -0.7443618776 -0.0613584482  0.0259533348
Cl  0.5391206256  0.2415946794 -0.1021894645
2
step 235
 H -0.7424271108 -0.0602041962  0.0254651105
Cl  0.5368699741  0.2423921651 -0.1025267842
2
step 236
 H -0.7397755364 -0.0588713560  0.0249013471
Cl  0.5345793347  0.2431919880 -0.1028650924
2
step 237
 H -0.7368586757 -0.0574661338  0.0243069677
Cl  0.5322602016  0.2439976757 -0.1032058814
2
step 238
 H -0.7341718693 -0.0561055577  0.0237314727
Cl  0.5299252051  0.2448131053 -0.1035507909
2
step 239
 H -0.7322059130 -0.0549060291  0.0232240973
Cl  0.5275867037  0.2456421896 -0.1039014761
2
step 240
 H -0.7313940678 -0.0539706698  0.0228284600
Cl  0.5252552427  0.2464885312 -0.1042594608
2
step 241
 H -0.7320610697 -0.0533770368  0.0225773657
Cl  0.5229380740  0.2473550843 -0.1046259946
2
step 242
 H -0.7343821698 -0.0531671297  0.0224885795
Cl  0.5206379686  0.2482438795 -0.1050019362
2
step 243
 H -0.7383596658 -0.0533415088  0.0225623382
Cl  0.5183525335  0.2491558623 -0.1053876857
2
step 244
 H -0.7438215337 -0.0538586778  0.0227810898
Cl  0.5160741589  0.2500908810 -0.1057831790
2
step 245
 H -0.7504423625 -0.0546398381  0.0231115042
Cl  0.5137905936  0.2510478295 -0.1061879480
2
step 246
 H -0.7577823500 -0.0555780520  0.0235083489
Cl  0.5114860215  0.2520249194 -0.1066012365
2
step 247
 H -0.7653371713 -0.0565501192  0.0239195129
Cl  0.5091424324  0.2530200364 -0.1070221501
2
step 248
 H -0.7725908573 -0.0574292900  0.0242913837
Cl  0.5067410647  0.2540311240 -0.1074498188
2
step 249
 H -0.7790651505 -0.0580972351  0.0245739104
Cl  0.5042637415  0.2550565493 -0.1078835522
2
step 250
 H -0.7843612025 -0.0584542553  0.0247249224
Cl  0.5016939927  0.2560954179 -0.1083229717
2
step 251
 H -0.7881918682 -0.0584272895  0.0247135165
Cl  0.4990179216  0.2571478201 -0.1087681157
2
step 252
 H -0.7904045242 -0.0579756821  0.0245224961
Cl  0.4962248239  0.2582150071 -0.1092195133
2
step 253
 H -0.7909949937 -0.0570948302  0.0241499142
Cl  0.4933075789  0.2592994958 -0.1096782292
2
step 254
 H -0.7901129023 -0.0558177715  0.0236097453
Cl  0.4902628252  0.2604051055 -0.1101458789
2
step 255
 H -0.7880579126 -0.0542145555  0.0229316187
Cl  0.4870909031  0.2615369210 -0.1106246130
2
step 256
 H -0.7852652614 -0.0523889802  0.0221594388
Cl  0.4837955186  0.2627011717 -0.1111170665
2
step 257
 H -0.7822783946 -0.0504721173  0.0213486461
Cl  0.4803830634  0.2639050102 -0.1116262649
2
step 258
 H -0.7797068879 -0.0486121263  0.0205619090
Cl  0.4768615444  0.2651561751 -0.1121554813
2
step 259
 H -0.7781697610 -0.0469603314  0.0198632345
Cl  0.4732391319  0.2664625347 -0.1127080439
2
step 260
 H -0.7782278151 -0.0456544064  0.0193108558
Cl  0.4695224448  0.2678315300 -0.1132871001
2
step 261
 H -0.7803130263 -0.0448006309  0.0189497267
Cl  0.4657148104  0.2692695692 -0.1138953604
2
step 262
 H -0.7846666721 -0.0444581301  0.0188048561
Cl  0.4618148369  0.2707814537 -0.1145348558
2
step 263
 H -0.7912987431 -0.0446282881  0.0188768294
Cl  0.4578156404  0.2723699336 -0.1152067493
2
step 264
 H -0.7999780523 -0.0452517914  0.0191405581
Cl  0.4537049590  0.2740354736 -0.1159112377
2
step 265
 H -0.8102558884 -0.0462141436  0.0195476129
Cl  0.4494661825  0.2757762753 -0.1166475601
2
step 266
 H -0.8215184959 -0.0473585851  0.0200316876
Cl  0.4450801115  0.2775885431 -0.1174141113
2
step 267
 H -0.8330580557 -0.0485038957  0.0205161299
Cl  0.4405271135  0.2794669384 -0.1182086330
2
step 268
 H -0.8441499715 -0.0494640356  0.0209222489
Cl  0.4357893244  0.2814051365 -0.1190284500
2
step 269
 H -0.8541259668 -0.0500669543  0.0211772709
Cl  0.4308526177  0.2833964025 -0.1198707136
2
step 270
 H -0.8624361822 -0.0501708033  0.0212211968
Cl  0.4257081911  0.2854341200 -0.1207326252
2
step 271
 H -0.8686972257 -0.0496767254  0.0210122123
Cl  0.4203537279  0.2875122323 -0.1216116230
2
step 272
 H -0.8727256651 -0.0485380375  0.0205305713
Cl  0.4147941488  0.2896255790 -0.1225055242
2
step 273
 H -0.8745572957 -0.0467658303  0.0197809649
Cl  0.4090419711  0.2917701268 -0.1234126227
2
step 274
 H -0.8744518784 -0.0444308369  0.0187933119
Cl  0.4031172532  0.2939430943 -0.1243317423
2
step 275
 H -0.8728815999 -0.0416610273  0.0176217407
Cl  0.3970470489  0.2961429663 -0.1252622418
2
step 276
 H -0.8705001836 -0.0386340183  0.0163413797
Cl  0.3908642638  0.2983693779 -0.1262039670
2
step 277
 H -0.8680869103 -0.0355685091  0.0150447338
Cl  0.3846057468  0.3006229911 -0.1271571980
2
step 278
 H -0.8664772276 -0.0326900401  0.0138272020
Cl  0.3783099735  0.3029046511 -0.1281222922
2
step 279
 H -0.8664576559 -0.0302217161  0.0127831529
Cl  0.3720137369  0.3052152442 -0.1290996244
2
step 280
 H -0.8686708674 -0.0283404200  0.0119874042
Cl  0.3657492065  0.3075545442 -0.1300890990
2
step 281
 H -0.8735160028 -0.0271614968  0.0114887446
Cl  0.3595409691  0.3099208243 -0.1310899857
2
step 282
 H -0.8810877110 -0.0267187636  0.0113014777
Cl  0.3534042857  0.3123102926 -0.1321006806
2
step 283
 H -0.8911602910 -0.0269583484  0.0114028171
Cl  0.3473447010  0.3147168940 -0.1331186223
2
step 284
 H -0.9032222246 -0.0277468648  0.0117363430
Cl  0.3413590850  0.3171325198 -0.1341403812
2
step 285
 H -0.9165519890 -0.0288913274  0.0122204266
Cl  0.3354377895  0.3195475740 -0.1351618982
2
step 286
 H -0.9303157925 -0.0301715397  0.0127619295
Cl  0.3295673472  0.3219519239 -0.1361788876
2
step 287
 H -0.9436703731 -0.0313563159  0.0132630650
Cl  0.3237332569  0.3243354136 -0.1371870536
2
step 288
 H -0.9558504335 -0.0322298371  0.0136325461
Cl  0.3179223258  0.3266886675 -0.1381824305
2
step 289
 H -0.9662348206 -0.0326180251  0.0137967414
Cl  0.3121244542  0.3290038771 -0.1391617154
2
step 290
 H -0.9743902578 -0.0323990752  0.0137041303
Cl  0.3063338604  0.3312751071 -0.1401223979
2
step 291
 H -0.9800955033 -0.0315103221  0.0133282064
Cl  0.3005498296  0.3334984673 -0.1410628325
2
step 292
 H -0.9833493442 -0.0299510771  0.0126686786
Cl  0.2947770599  0.3356721484 -0.1419822539
2
step 293
 H -0.9843654629 -0.0277818532  0.0117511426
Cl  0.2890256497  0.3377963497 -0.1428807463
2
step 294
 H -0.9835551707 -0.0251200941  0.0106252745
Cl  0.2833107175  0.3398731155 -0.1437591745
2
step 295
 H -0.9814970421 -0.0221320378  0.0093613896
Cl  0.2776515961  0.3419060820 -0.1446190765
2
step 296
 H -0.9788915096 -0.0190200848  0.0080450990
Cl  0.2720705415  0.3439001186 -0.1454625121
2
step 297
 H -0.9764992494 -0.0160052638  0.0067698931
Cl  0.2665909365  0.3458608457 -0.1462918584
2
step 298