2
step 0
 H -0.1566674969  0.0000000000  0.0000000000
Cl  1.1566675014  0.0000000000  0.0000000000
2
step 1
 H -0.1537384366 -0.0011076526  0.0004685137
Cl  1.1537384411  0.0011076526 -0.0004685137
2
step 2
 H -0.1514356511 -0.0021908053  0.0009266645
Cl  1.1508739036  0.0021969422 -0.0009292603
2
step 3
 H -0.1502710837 -0.0032508964  0.0013750608
Cl  1.1480875475  0.0032682491 -0.0013824006
2
step 4
 H -0.1506334534 -0.0042919415  0.0018154009
Cl  1.1453894407  0.0043220595 -0.0018281402
2
step 5
 H -0.1527415224 -0.0053184977  0.0022496126
Cl  1.1427847442  0.0053589034 -0.0022667033
2
step 6
 H -0.1566178964 -0.0063343107  0.0026792801
Cl  1.1402729937  0.0063793060 -0.0026983122
2
step 7
 H -0.1620887044 -0.0073412805  0.0031052071
Cl  1.1378481209  0.0073837465 -0.0031231694
2
step 8
 H -0.1688091992 -0.0083388080  0.0035271403
Cl  1.1354992072  0.0083726304 -0.0035414465
2
step 9
 H -0.1763099353 -0.0093236207  0.0039436953
Cl  1.1332118076  0.0093462797 -0.0039532796
2
step 10
 H -0.1840546619 -0.0102900819  0.0043524881
Cl  1.1309695941  0.0103049430 -0.0043587740
2
step 11
 H -0.1915003456 -0.0112308948  0.0047504321
Cl  1.1287560481  0.0112488209 -0.0047580145
2
step 12
 H -0.1981514800 -0.0121380540  0.0051341414
Cl  1.1265559887  0.0121780989 -0.0051510795
2
step 13
 H -0.2036038154 -0.0130038887  0.0055003712
Cl  1.1243568054  0.0130929815 -0.0055380556
2
step 14
 H -0.2075755694 -0.0138220705  0.0058464449
Cl  1.1221493446  0.0139937204 -0.0059190492
2
step 15
 H -0.2099262070 -0.0145884974  0.0061706274
Cl  1.1199284544  0.0148806363 -0.0062941960
2
step 16
 H -0.2106637785 -0.0153019929  0.0064724209
Cl  1.1176932104  0.0157541319 -0.0066636662
2
step 17
 H -0.2099417763 -0.0159647775  0.0067527649
Cl  1.1154468455  0.0166146980 -0.0070276675
2
step 18
 H -0.2080459617 -0.0165826653  0.0070141184
Cl  1.1131963904  0.0174629137 -0.0073864450
2
step 19
 H -0.2053711300 -0.0171649314  0.0072604047
Cl  1.1109520183  0.0182994404 -0.0077402781
2
step 20
 H -0.2023877689 -0.0177237947  0.0074967921
Cl  1.1087260937  0.0191250084 -0.0080894760
2
step 21
 H -0.1995993564 -0.0182734809  0.0077292978
Cl  1.1065319463  0.0199403946 -0.0084343672
2
step 22
 H -0.1974927017 -0.0188288821  0.0079642208
Cl  1.1043824451  0.0207463901 -0.0087752863
2
step 23
 H -0.1964859428 -0.0194039149  0.0082074476
Cl  1.1022885091  0.0215437571 -0.0091125558
2
step 24
 H -0.1968808532 -0.0200097728  0.0084637127
Cl  1.1002577474  0.0223331811 -0.0094464656
2
step 25
 H -0.1988269912 -0.0206533504  0.0087359325
Cl  1.0982934467  0.0231152232 -0.0097772529
2
step 26
 H -0.2023041659 -0.0213361299  0.0090247339
Cl  1.0963940847  0.0238902842 -0.0101050874
2
step 27
 H -0.2071266249 -0.0220537590  0.0093282759
Cl  1.0945534633  0.0246585870 -0.0104300633
2
step 28
 H -0.2129681122 -0.0227964149  0.0096424037
Cl  1.0927614314  0.0254201832 -0.0107522025
2
step 29
 H -0.2194029599 -0.0235498861  0.0099611061
Cl  1.0910050543  0.0261749834 -0.0110714670
2
step 30
 H -0.2259559593 -0.0242971772  0.0102771946
Cl  1.0892700257  0.0269228050 -0.0113877799
2
step 31
 H -0.2321534480 -0.0250203747  0.0105830919
Cl  1.0875421085  0.0276634301 -0.0117010487
2
step 32
 H -0.2375694856 -0.0257025218  0.0108716257
Cl  1.0858084346  0.0283966628 -0.0120111907
2
step 33
 H -0.2418632563 -0.0263293095  0.0111367437
Cl  1.0840585605  0.0291223814 -0.0123181544
2
step 34
 H -0.2448060103 -0.0268904622  0.0113740995
Cl  1.0822852314  0.0298405778 -0.0126219363
2
step 35
 H -0.2462973481 -0.0273807559  0.0115814834
Cl  1.0804848484  0.0305513847 -0.0129225927
2
step 36
 H -0.2463713097 -0.0278006404  0.0117590858
Cl  1.0786576516  0.0312550903 -0.0132202454
2
step 37
 H -0.2451927239 -0.0281564417  0.0119095822
Cl  1.0768076254  0.0319521398 -0.0135150826
2
step 38
 H -0.2430439555 -0.0284601089  0.0120380270
Cl  1.0749421290  0.0326431260 -0.0138073552
2
step 39
 H -0.2403019692 -0.0287284654  0.0121515362
Cl  1.0730712450  0.0333287675 -0.0140973672
2
step 40
 H -0.2374058784 -0.0289819275  0.0122587453
Cl  1.0712068509  0.0340098743 -0.0143854610
2
step 41
 H -0.2348160952 -0.0292427062  0.0123690492
Cl  1.0693614484  0.0346873007 -0.0146719981
2
step 42
 H -0.2329678357 -0.0295325870  0.0124916627
Cl  1.0675468294  0.0353618862 -0.0149573336
2
step 43
 H -0.2322237045 -0.0298704975  0.0126345917
Cl  1.0657727199  0.0360343896 -0.0152417884
2
step 44
 H -0.2328316792 -0.0302701808  0.0128036493
Cl  1.0640455824  0.0367054240 -0.0155256218
2
step 45
 H -0.2348952127 -0.0307383451  0.0130016730
Cl  1.0623677703  0.0373754026 -0.0158090086
2
step 46
 H -0.2383608173 -0.0312736291  0.0132280868
Cl  1.0607371825  0.0380445060 -0.0160920253
2
step 47
 H -0.2430254875 -0.0318665890  0.0134788964
Cl  1.0591474839  0.0387126788 -0.0163746483
2
step 48
 H -0.2485625262 -0.0325007166  0.0137471190
Cl  1.0575888443  0.0393796563 -0.0166567658
2
step 49
 H -0.2545610153 -0.0331543074  0.0140235742
Cl  1.0560490605  0.0400450182 -0.0169381998
2
step 50
 H -0.2605723308 -0.0338028610  0.0142978987
Cl  1.0545148713  0.0407082591 -0.0172187368
2
step 51
 H -0.2661570705 -0.0344216627  0.0145596388
Cl  1.0529732817  0.0413688661 -0.0174981597
2
step 52
 H -0.2709271350 -0.0349882387  0.0147992885
Cl  1.0514127477  0.0420263931 -0.0177762797
2
step 53
 H -0.2745796746 -0.0354844663  0.0150091823
Cl  1.0498241342  0.0426805229 -0.0180529629
2
step 54
 H -0.2769214318 -0.0358982180  0.0151841906
Cl  1.0482014044  0.0433311159 -0.0183281500
2
step 55
 H -0.2778832124 -0.0362244841  0.0153221943
Cl  1.0465420333  0.0439782405 -0.0186018701
2
step 56
 H -0.2775247129 -0.0364659503  0.0154243294
Cl  1.0448471505  0.0446221877 -0.0188742462
2
step 57
 H -0.2760298934 -0.0366330074  0.0154949910
Cl  1.0431214136  0.0452634696 -0.0191454949
2
step 58
 H -0.2736928439 -0.0367431564  0.0155415817
Cl  1.0413726087  0.0459028013 -0.0194159188
2
step 59
 H -0.2708940131 -0.0368197677  0.0155739867
Cl  1.0396109706  0.0465410674 -0.0196858920
2
step 60
 H -0.2680670911 -0.0368901747  0.0156037674
Cl  1.0378482321  0.0471792713 -0.0199558388
2
step 61
 H -0.2656579383 -0.0369831580  0.0156430974
Cl  1.0360964417  0.0478184687 -0.0202262058
2
step 62
 H -0.2640786647 -0.0371259874  0.0157035112
Cl  1.0343666427  0.0484596898 -0.0204974288
2
step 63
 H -0.2636618601 -0.0373413319  0.0157945974
Cl  1.0326675570  0.0491038568 -0.0207698979
2
step 64
 H -0.2646213439 -0.0376444594  0.0159228139
Cl  1.0310044601  0.0497517078 -0.0210439252
2
step 65
 H -0.2670258582 -0.0380411861  0.0160906210
Cl  1.0293784274  0.0504037405 -0.0213197213
2
step 66
 H -0.2707904559 -0.0385269504  0.0162960891
Cl  1.0277860868  0.0510601871 -0.0215973845
2
step 67
 H -0.2756871844 -0.0390871925  0.0165330597
Cl  1.0262199188  0.0517210264 -0.0218769056
2
step 68
 H -0.2813729996 -0.0396989732  0.0167918300
Cl  1.0246690425  0.0523860324 -0.0221581891
2
step 69
 H -0.2874298566 -0.0403335409  0.0170602388
Cl  1.0231203398  0.0530548538 -0.0224410865
2
step 70
 H -0.2934104900 -0.0409594302  0.0173249768
Cl  1.0215597354  0.0537271096 -0.0227254365
2
step 71
 H -0.2988836809 -0.0415456625  0.0175729408
Cl  1.0199734571  0.0544024907 -0.0230111085
2
step 72
 H -0.3034743050 -0.0420647020  0.0177924835
Cl  1.0183491474  0.0550808542 -0.0232980420
2
step 73
 H -0.3068953950 -0.0424949405  0.0179744654
Cl  1.0166767505  0.0557623028 -0.0235862804
2
step 74
 H -0.3089711159 -0.0428226005  0.0181130587
Cl  1.0149491474  0.0564472466 -0.0238759972
2
step 75
 H -0.3096505806 -0.0430430165  0.0182062900
Cl  1.0131625367  0.0571364431 -0.0241675129
2
step 76
 H -0.3090127518 -0.0431612834  0.0182563144
Cl  1.0113165681  0.0578310187 -0.0244613037
2
step 77
 H -0.3072624794 -0.0431922457  0.0182694108
Cl  1.0094142277  0.0585324689 -0.0247580024
2
step 78
 H -0.3047173296 -0.0431597689  0.0182556738
Cl  1.0074614615  0.0592426379 -0.0250583889
2
step 79
 H -0.3017846490 -0.0430952180  0.0182283701
Cl  1.0054665210  0.0599636770 -0.0253633733
2
step 80
 H -0.2989286363 -0.0430350850  0.0182029351
Cl  1.0034390220  0.0606979783 -0.0256739673
2
step 81
 H -0.2966283084 -0.0430177937  0.0181956213
Cl  1.0013887454  0.0614480859 -0.0259912470
2
step 82
 H -0.2953291306 -0.0430798591  0.0182218736
Cl  0.9993242633  0.0622165860 -0.0263163064
2
step 83
 H -0.2953933276 -0.0432517759  0.0182945908
Cl  0.9972515375  0.0630059855 -0.0266502057
2
step 84
 H -0.2970557179 -0.0435541808  0.0184225017
Cl  0.9951726919  0.0638185928 -0.0269939215
2
step 85
 H -0.3003923860 -0.0439949134  0.0186089223
Cl  0.9930851677  0.0646564166 -0.0273483034
2
step 86
 H -0.3053080154 -0.0445675164  0.0188511213
Cl  0.9909814261  0.0655210992 -0.0277140459
2
step 87
 H -0.3115444240 -0.0452514755  0.0191404217
Cl  0.9888492652  0.0664138957 -0.0280916800
2
step 88
 H -0.3187087683 -0.0460141686  0.0194630248
Cl  0.9866726992  0.0673357000 -0.0284815839
2
step 89
 H -0.3263164143 -0.0468141878  0.0198014160
Cl  0.9844332516  0.0682871112 -0.0288840108
2
step 90
 H -0.3338416630 -0.0476055120  0.0201361296
Cl  0.9821114643  0.0692685268 -0.0292991289
2
step 91
 H -0.3407696439 -0.0483419811  0.0204476405
Cl  0.9796884337  0.0702802471 -0.0297270653
2
step 92
 H -0.3466442004 -0.0489816163  0.0207181927
Cl  0.9771472306  0.0713225761 -0.0301679486
2
step 93
 H -0.3511085964 -0.0494904864  0.0209334340
Cl  0.9744741177  0.0723959084 -0.0306219455
2
step 94
 H -0.3539375419 -0.0498459516  0.0210837884
Cl  0.9716595277  0.0735007958 -0.0310892896
2
step 95
 H -0.3550599049 -0.0500391895  0.0211655239
Cl  0.9686987791  0.0746379932 -0.0315703002
2
step 96
 H -0.3545714641 -0.0500769015  0.0211814753
Cl  0.9655925088  0.0758084801 -0.0320653915
2
step 97
 H -0.3527364012 -0.0499820313  0.0211413472
Cl  0.9623467705  0.0770134598 -0.0325750726
2
step 98
 H -0.3499753999 -0.0497932303  0.0210614884
Cl  0.9589727277  0.0782543330 -0.0330999358
2
step 99
 H -0.3468378319 -0.0495627471  0.0209639988
Cl  0.9554858593  0.0795326384 -0.0336406321
2
step 100
 H -0.3439562533 -0.0493524597  0.0208750517
Cl  0.9519046261  0.0808499553 -0.0341978294
2
step 101
 H -0.3419838467 -0.0492279853  0.0208224016
Cl  0.9482486241  0.0822077618 -0.0347721530
2
step 102
 H -0.3415195291 -0.0492512070  0.0208322239
Cl  0.9445363772  0.0836072520 -0.0353641079
2
step 103
 H -0.3430303197 -0.0494720892  0.0209256524
Cl  0.9407830626  0.0850491282 -0.0359739911
2
step 104
 H -0.3467843195 -0.0499211308  0.0211155876
Cl  0.9369985662  0.0865334017 -0.0366018076
2
step 105
 H -0.3528081047 -0.0506039768  0.0214044171
Cl  0.9331862623  0.0880592429 -0.0372472063
2
step 106
 H -0.3608782307 -0.0514994130  0.0217831677
Cl  0.9293427806  0.0896249205 -0.0379094550
2
step 107
 H -0.3705488322 -0.0525612298  0.0222322939
Cl  0.9254587956  0.0912278534 -0.0385874619
2
step 108
 H -0.3812088983 -0.0537235374  0.0227239255
Cl  0.9215206327  0.0928647700 -0.0392798431
2
step 109
 H -0.3921567362 -0.0549168898  0.0232286885
Cl  0.9175123285  0.0945321879 -0.0399851258
2
step 110
 H -0.4026792839 -0.0560537546  0.0237095584
Cl  0.9134178018  0.0962260330 -0.0407015866
2
step 111
 H -0.4121235252 -0.0570639466  0.0241368484
Cl  0.9092227943  0.0979426805 -0.0414276924
2
step 112
 H -0.4199552985 -0.0578764693  0.0244805284
Cl  0.9049164721  0.0996784656 -0.0421618930
2
step 113
 H -0.4258020636 -0.0584424222  0.0247199145
Cl  0.9004926086  0.1014303472 -0.0429029020
2
step 114
 H -0.4294804878 -0.0587358543  0.0248440301
Cl  0.8959503790  0.1031959280 -0.0436497055
2
step 115
 H -0.4310108527 -0.0587554794  0.0248523311
Cl  0.8912948126  0.1049734878 -0.0444015759
2
step 116
 H -0.4306185618 -0.0585255956  0.0247550951
Cl  0.8865368912  0.1067619880 -0.0451580739
2
step 117
 H -0.4287221400 -0.0580955227  0.0245731833
Cl  0.8816932496  0.1085610402 -0.0459190351
2
step 118
 H -0.4259036599 -0.0575460535  0.0243407694
Cl  0.8767853409  0.1103710871 -0.0466846468
2
step 119
 H -0.4228690383 -0.0569599576  0.0240928632
Cl  0.8718382694  0.1121925785 -0.0474550994
2
step 120
 H -0.4203761983 -0.0564428701  0.0238741461
Cl  0.8668786721  0.1140265939 -0.0482308493
2
step 121
 H -0.4191616990 -0.0560864849  0.0237234026
Cl  0.8619325430  0.1158738297 -0.0490121911
2
step 122
 H -0.4198441537 -0.0559834292  0.0236798123
Cl  0.8570224171  0.1177350490 -0.0497994477
2
step 123
 H -0.4228482431 -0.0561878883  0.0237662941
Cl  0.8521651857  0.1196099709 -0.0505925002
2
step 124
 H -0.4283382184 -0.0567250048  0.0239934832
Cl  0.8473702359  0.1214975263 -0.0513908964
2
step 125
 H -0.4361940036 -0.0575822696  0.0243560881
Cl  0.8426388393  0.1233955877 -0.0521937364
2
step 126
 H -0.4460285477 -0.0587093488  0.0248328189
Cl  0.8379647159  0.1253009373 -0.0529996592
2
step 127
 H -0.4572421842 -0.0600337992  0.0253930335
Cl  0.8333356161  0.1272097003 -0.0538070258
2
step 128
 H -0.4691053195 -0.0614454960  0.0259901516
Cl  0.8287356525  0.1291169090 -0.0546137349
2
step 129
 H -0.4808453119 -0.0628394525  0.0265797658
Cl  0.8241477006  0.1310177471 -0.0554177494
2
step 130
 H -0.4917305790 -0.0641072598  0.0271160216
Cl  0.8195556938  0.1329073419 -0.0562170083
2
step 131
 H -0.5011387963 -0.0651476288  0.0275560758
Cl  0.8149464749  0.1347810981 -0.0570095677
2
step 132
 H -0.5086056681 -0.0658862938  0.0278685156
Cl  0.8103111309  0.1366352828 -0.0577938488
2
step 133
 H -0.5138557377 -0.0662778900  0.0280341525
Cl  0.8056458636  0.1384670806 -0.0585686607
2
step 134
 H -0.5168177569 -0.0663082372  0.0280469887
Cl  0.8009524632  0.1402746455 -0.0593332226
2
step 135
 H -0.5176264450 -0.0659953257  0.0279146338
Cl  0.7962384148  0.1420571068 -0.0600871662
2
step 136
 H -0.5166117118 -0.0653885096  0.0276579633
Cl  0.7915166430  0.1438145273 -0.0608305181
2
step 137
 H -0.5142747616 -0.0645655757  0.0273098796
Cl  0.7868048538  0.1455478119 -0.0615636610
2
step 138
 H -0.5112472079 -0.0636353801  0.0269164265
Cl  0.7821243520  0.1472587900 -0.0622873687
2
step 139
 H -0.5082429786 -0.0627074064  0.0265239131
Cl  0.7774986141  0.1489493725 -0.0630024495
2
step 140
 H -0.5059808050 -0.0619063921  0.0261851010
Cl  0.7729510055  0.1506219978 -0.0637099349
2
step 141
 H -0.5051127971 -0.0613360477  0.0259438572
Cl  0.7685026764  0.1522786279 -0.0644106545
2
step 142
 H -0.5061397083 -0.0610812756  0.0258360940
Cl  0.7641701125  0.1539208264 -0.0651052699
2
step 143
 H -0.5093471136 -0.0611933485  0.0258834985
Cl  0.7599633271  0.1555493351 -0.0657940948
2
step 144
 H -0.5147676707 -0.0616815238  0.0260899864
Cl  0.7558848342  0.1571638175 -0.0664769869
2
step 145
 H -0.5221793022 -0.0625113454  0.0264409835
Cl  0.7519296604  0.1587627870 -0.0671533173
2
step 146
 H -0.5311398567 -0.0636094884  0.0269054748
Cl  0.7480863819  0.1603437249 -0.0678220208
2
step 147
 H -0.5410501537 -0.0648738624  0.0274402784
Cl  0.7443389364  0.1619033603 -0.0684817138
2
step 148
 H -0.5512319033 -0.0661867435  0.0279955995
Cl  0.7406688198  0.1634380509 -0.0691308556
2
step 149
 H -0.5610063443 -0.0674284860  0.0285208304
Cl  0.7370572793  0.1649441884 -0.0697679201
2
step 150
 H -0.5697627453 -0.0684898382  0.0289697601
Cl  0.7334872161  0.1664185662 -0.0703915508
2
step 151
 H -0.5770108982 -0.0692817123  0.0293047062
Cl  0.7299446508  0.1678586672 -0.0710006832
2
step 152
 H -0.5824162335 -0.0697420359  0.0294994134
Cl  0.7264197247  0.1692628574 -0.0715946261
2
step 153
 H -0.5858189792 -0.0698398318  0.0295407790
Cl  0.7229072773  0.1706304898 -0.0721731058
2
step 154
 H -0.5872397106 -0.0695768573  0.0294295463
Cl  0.7194070569  0.1719619306 -0.0727362773
2
step 155
 H -0.5868731881 -0.0689870797  0.0291800828
Cl  0.7159236020  0.1732585236 -0.0732847088
2
step 156
 H -0.5850712689 -0.0681340721  0.0288192785
Cl  0.7124658009  0.1745224979 -0.0738193434
2
step 157
 H -0.5823146643 -0.0671062330  0.0283845242
Cl  0.7090461142  0.1757568235 -0.0743414371
2
step 158
 H -0.5791730084 -0.0660096764  0.0279207038
Cl  0.7056794411  0.1769650077 -0.0748524736
2
step 159
 H -0.5762535805 -0.0649588011  0.0274762057
Cl  0.7023816472  0.1781508327 -0.0753540526
2
step 160
 H -0.5741411957 -0.0640649638  0.0270981313
Cl  0.6991678368  0.1793180407 -0.0758477570
2
step 161
 H -0.5733348542 -0.0634242865  0.0268271383
Cl  0.6960505420  0.1804699905 -0.0763350076
2
step 162
 H -0.5741896792 -0.0631062264  0.0266926056
Cl  0.6930380817  0.1816093294 -0.0768169239
2
step 163
 H -0.5768740144 -0.0631448510  0.0267089430
Cl  0.6901333712  0.1827377336 -0.0772942151
2
step 164
 H -0.5813501104 -0.0635345372  0.0268737720
Cl  0.6873334170  0.1838557693 -0.0777671207
2
step 165
 H -0.5873824831 -0.0642310126  0.0271683665
Cl  0.6846295978  0.1849629060 -0.0782354162
2
step 166
 H -0.5945721034 -0.0651575124  0.0275602564
Cl  0.6820086690  0.1860576796 -0.0786984824
2
step 167
 H -0.6024092769 -0.0662147603  0.0280074500
Cl  0.6794542783  0.1871379709 -0.0791554229
2
step 168
 H -0.6103352554 -0.0672928798  0.0284634719
Cl  0.6769487125  0.1882013468 -0.0796052086
2
step 169
 H -0.6178028632 -0.0682833311  0.0288824119
Cl  0.6744746051  0.1892454056 -0.0800468234
2
step 170
 H -0.6243289362 -0.0690894182  0.0292233698
Cl  0.6720164115  0.1902680813 -0.0804793937
2
step 171
 H -0.6295347095 -0.0696345484  0.0294539484
Cl  0.6695615493  0.1912678820 -0.0809022884
2
step 172
 H -0.6331731579 -0.0698679882  0.0295526885
Cl  0.6671011819  0.1922440510 -0.0813151873
2
step 173
 H -0.6351440280 -0.0697682090  0.0295104840
Cl  0.6646306619  0.1931966556 -0.0817181190
2
step 174
 H -0.6354978293 -0.0693440306  0.0293310655
Cl  0.6621496686  0.1941266111 -0.0821114706
2
step 175
 H -0.6344297339 -0.0686337178  0.0290306181
Cl  0.6596620559  0.1950356463 -0.0824959734
2
step 176
 H -0.6322636579 -0.0677020479  0.0286365413
Cl  0.6571754149  0.1959262152 -0.0828726653
2
step 177
 H -0.6294263028 -0.0666352748  0.0281853187
Cl  0.6547003376  0.1968013524 -0.0832428299
2
step 178
 H -0.6264110526 -0.0655339332  0.0277194744
Cl  0.6522493823  0.1976644721 -0.0836079114
2
step 179
 H -0.6237326540 -0.0645036429  0.0272836833
Cl  0.6498357677  0.1985191129 -0.0839694064
2
step 180
 H -0.6218755333 -0.0636444728  0.0269202725
Cl  0.6474718858  0.1993686424 -0.0843287395
2
step 181
 H -0.6212410031 -0.0630399328  0.0266645647
Cl  0.6451677884  0.2002159485 -0.0846871322
2
step 182
 H -0.6221006074 -0.0627471009  0.0265407030
Cl  0.6429298588  0.2010631598 -0.0850454847
2
step 183
 H -0.6245634045 -0.0627895344  0.0265586515
Cl  0.6407598903  0.2019114405 -0.0854042896
2
step 184
 H -0.6285633643 -0.0631543080  0.0267129430
Cl  0.6386547427  0.2027609006 -0.0857635934
2
step 185
 H -0.6338694100 -0.0637937781  0.0269834254
Cl  0.6366066433  0.2036106405 -0.0861230154
2
step 186
 H -0.6401160771 -0.0646317217  0.0273378579
Cl  0.6346040662  0.2044589220 -0.0864818207
2
step 187
 H -0.6468488820 -0.0655726662  0.0277358576
Cl  0.6326330196  0.2053034354 -0.0868390321
2
step 188
 H -0.6535765387 -0.0665127887  0.0281335097
Cl  0.6306785194  0.2061416128 -0.0871935635
2
step 189
 H -0.6598224346 -0.0673507882  0.0284879658
Cl  0.6287260354  0.2069709445 -0.0875443533
2
step 190
 H -0.6651696594 -0.0679975083  0.0287615148
Cl  0.6267627562  0.2077892576 -0.0878904825
2
step 191
 H -0.6692963512 -0.0683835960  0.0289248217
Cl  0.6247785848  0.2085949380 -0.0882312684
2
step 192
 H -0.6720002427 -0.0684649269  0.0289592230
Cl  0.6227668355  0.2093870848 -0.0885663298
2
step 193
 H -0.6732125851 -0.0682258010  0.0288580778
Cl  0.6207246367  0.2101655981 -0.0888956245
2
step 194
 H -0.6730020408 -0.0676800076  0.0286272187
Cl  0.6186530535  0.2109312056 -0.0892194604
2
step 195
 H -0.6715689321 -0.0668698144  0.0282845240
Cl  0.6165569344  0.2116854294 -0.0895384812
2
step 196
 H -0.6692297997 -0.0658628454  0.0278585973
Cl  0.6144444786  0.2124304950 -0.0898536282
2
step 197
 H -0.6663920196 -0.0647467677  0.0273865199
Cl  0.6123265122  0.2131691808 -0.0901660768
2
step 198
 H -0.6635185991 -0.0636217867  0.0269106766
Cl  0.6102154781  0.2139046088 -0.0904771474
2
step 199
 H -0.6610844565 -0.0625912097  0.0264747643
Cl  0.6081241784  0.2146399811 -0.0907881944
2
step 200
 H -0.6595274012 -0.0617507550  0.0261192696
Cl  0.6060643667  0.2153782819 -0.0911004801
2
step 201
 H -0.6591991954 -0.0611777742  0.0258769108
Cl  0.6040453471  0.2161219739 -0.0914150462
2
step 202
 H -0.6603236794 -0.0609219178  0.0257686889
Cl  0.6020727826  0.2168727341 -0.0917326019
2
step 203
 H -0.6629690478 -0.0609988266  0.0258012197
Cl  0.6001479144  0.2176312709 -0.0920534470
2
step 204
 H -0.6670394902 -0.0613880360  0.0259658471
Cl  0.5982673355  0.2183972608 -0.0923774446
2
step 205
 H -0.6722878454 -0.0620355130  0.0262397162
Cl  0.5964233621  0.2191694158 -0.0927040499
2
step 206
 H -0.6783467890 -0.0628603301  0.0265885965
Cl  0.5946049252  0.2199456713 -0.0930323897
2
step 207
 H -0.6847727718 -0.0637642426  0.0269709324
Cl  0.5927988169  0.2207234599 -0.0933613779
2
step 208
 H -0.6910954545 -0.0646425814  0.0273424513
Cl  0.5909910855  0.2215000244 -0.0936898483
2
step 209
 H -0.6968658476 -0.0653949612  0.0276606921
Cl  0.5891683903  0.2222727283 -0.0940166858
2
step 210
 H -0.7016981648 -0.0659346779  0.0278889809
Cl  0.5873191786  0.2230393272 -0.0943409410
2
step 211
 H -0.7053025842 -0.0661961514  0.0279995787
Cl  0.5854346110  0.2237981831 -0.0946619211
2
step 212
 H -0.7075079258 -0.0661401661  0.0279758981
Cl  0.5835092059  0.2245484134 -0.0949792527
2
step 213
 H -0.7082742999 -0.0657568959  0.0278137829
Cl  0.5815412074  0.2252899739 -0.0952929172
2
step 214
 H -0.7076960602 -0.0650667655  0.0275218723
Cl  0.5795326789  0.2260236795 -0.0956032592
2
step 215
 H -0.7059951604 -0.0641191456  0.0271210490
Cl  0.5774893250  0.2267511630 -0.0959109694
2
step 216
 H -0.7035046545 -0.0629888014  0.0266429372
Cl  0.5754200264  0.2274747729 -0.0962170412
2
step 217
 H -0.7006420103 -0.0617699950  0.0261274077
Cl  0.5733360786  0.2281974061 -0.0965226998
2
step 218
 H -0.6978724758 -0.0605682711  0.0256191038
Cl  0.5712501403  0.2289222789 -0.0968293058
2
step 219
 H -0.6956641225 -0.0594902733  0.0251631334
Cl  0.5691749408  0.2296526422 -0.0971382341
2
step 220
 H -0.6944382460 -0.0586324090  0.0248002749
Cl  0.5671218558  0.2303914650 -0.0974507405
2
step 221
 H -0.6945209727 -0.0580696934  0.0245622580
Cl  0.5650995231  0.2311411200 -0.0977678288
2
step 222
 H -0.6961033176 -0.0578464359  0.0244678248
Cl  0.5631127066  0.2319031194 -0.0980901386
2
step 223
 H -0.6992166789 -0.0579703996  0.0245202588
Cl  0.5611616065  0.2326779458 -0.0984178738
2
step 224
 H -0.7037284622 -0.0584115528  0.0247068573
Cl  0.5592417464  0.2334650123 -0.0987507864
2
step 225
 H -0.7093587055 -0.0591056665  0.0250004528
Cl  0.5573444554  0.2342627618 -0.0990882176
2
step 226
 H -0.7157144555 -0.0599620565  0.0253626878
Cl  0.5554578474  0.2350688858 -0.0994291911
2
step 227
 H -0.7223356362 -0.0608740621  0.0257484469
Cl  0.5535681193  0.2358806249 -0.0997725396
2
step 228
 H -0.7287450777 -0.0617305816  0.0261107367
Cl  0.5516609576  0.2366951024 -0.1001170465
2
step 229
 H -0.7344961878 -0.0624271583  0.0264053739
Cl  0.5497228765  0.2375096467 -0.1004615816
2
step 230
 H -0.7392137162 -0.0628755434  0.0265950314
Cl  0.5477423589  0.2383220692 -0.1008052192
2
step 231
 H -0.7426252320 -0.0630111654  0.0266523966
Cl  0.5457107412  0.2391308812 -0.1011473297
2
step 232
 H -0.7445826028 -0.0627983153  0.0265623655
Cl  0.5436228197  0.2399354426 -0.1014876422
2
step 233
 H -0.7450736192 -0.0622330574  0.0263232733
Cl  0.5414771844  0.2407360433 -0.1018262794
2
step 234
 H -0.7442240011 -0.0613438993  0.0259471781
Cl  0.5392762811  0.2415339207 -0.1021637648
2
step 235
 H -0.7422896630 -0.0601901675  0.0254591739
Cl  0.5370261943  0.2423312122 -0.1025010023
2
step 236
 H -0.7396386996 -0.0588579386  0.0248956691
Cl  0.5347361297  0.2431308417 -0.1028392287
2
step 237
 H -0.7367225311 -0.0574533670  0.0243015649
Cl  0.5324175790  0.2439363351 -0.1031799355
2
step 238
 H -0.7340363825 -0.0560934228  0.0237263371
Cl  0.5300831695  0.2447515677 -0.1035247618
2
step 239
 H -0.7320709299 -0.0548944484  0.0232191962
Cl  0.5277452568  0.2455804506 -0.1038753618
2
step 240
 H -0.7312593244 -0.0539595124  0.0228237379
Cl  0.5254143835  0.2464265846 -0.1042332586
2
step 241
 H -0.7319262167 -0.0533661308  0.0225727500
Cl  0.5230977996  0.2472929226 -0.1045997014
2
step 242
 H -0.7342468096 -0.0531562806  0.0224839878
Cl  0.5207982751  0.2481814942 -0.1049755485
2
step 243
 H -0.7382233974 -0.0533305212  0.0225576878
Cl  0.5185134178  0.2490932448 -0.1053611998
2
step 244
 H -0.7436839980 -0.0538473768  0.0227763069
Cl  0.5162356197  0.2500280230 -0.1057565913
2
step 245
 H -0.7503032813 -0.0546280894  0.0231065319
Cl  0.5139526325  0.2509847234 -0.1061612554
2
step 246
 H -0.7576415527 -0.0555657752  0.0235031532
Cl  0.5116486441  0.2519615592 -0.1065744364
2
step 247
 H -0.7651946080 -0.0565372957  0.0239140859
Cl  0.5093056486  0.2529564172 -0.1069952404
2
step 248
 H -0.7724465976 -0.0574159639  0.0242857441
Cl  0.5069048889  0.2539672423 -0.1074227981
2
step 249
 H -0.7789193721 -0.0580835082  0.0245681013
Cl  0.5044281924  0.2549924029 -0.1078564195
2
step 250
 H -0.7842141711 -0.0584402774  0.0247190071
Cl  0.5018590926  0.2560310054 -0.1082957265
2
step 251
 H -0.7880439128 -0.0584132458  0.0247075733
Cl  0.4991836962  0.2570831407 -0.1087407576
2
step 252
 H -0.7902560090 -0.0579617776  0.0245166118
Cl  0.4963913015  0.2581500598 -0.1091920419
2
step 253
 H -0.7908462885 -0.0570812730  0.0241441769
Cl  0.4934747896  0.2592342791 -0.1096506439
2
step 254
 H -0.7899643506 -0.0558047554  0.0236042368
Cl  0.4904308004  0.2603396168 -0.1101181784
2
step 255
 H -0.7879097990 -0.0542022419  0.0229264073
Cl  0.4872596746  0.2614711559 -0.1105967956
2
step 256
 H -0.7851177794 -0.0523774813  0.0221545720
Cl  0.4839651176  0.2626351236 -0.1110891295
2
step 257
 H -0.7821316174 -0.0504614814  0.0213441444
Cl  0.4805535202  0.2638386698 -0.1115982042
2
step 258
 H -0.7795607460 -0.0486023278  0.0205577615
Cl  0.4770328873  0.2650895301 -0.1121272918
2
step 259
 H -0.7780240329 -0.0469512672  0.0198593977
Cl  0.4734113876  0.2663955699 -0.1126797191
2
step 260
 H -0.7780821355 -0.0456459016  0.0193072555
Cl  0.4696956381  0.2677642272 -0.1132586323
2
step 261
 H -0.7801669155 -0.0447924537  0.0189462650
Cl  0.4658889650  0.2692019075 -0.1138667409
2
step 262
 H -0.7845195844 -0.0444500167  0.0188014213
Cl  0.4619899768  0.2707134107 -0.1145060749
2
step 263
 H -0.7911501281 -0.0446199730  0.0188733092
Cl  0.4579917912  0.2723014861 -0.1151777974
2
step 264
 H -0.7998274186 -0.0452430394  0.0191368532
Cl  0.4538821495  0.2739665988 -0.1158821050
2
step 265
 H -0.8101028578 -0.0462047787  0.0195436487
Cl  0.4496444456  0.2757069517 -0.1166182376
2
step 266
 H -0.8213628406 -0.0473485107  0.0200274233
Cl  0.4452594848  0.2775187513 -0.1173845907
2
step 267
 H -0.8328997153 -0.0484931060  0.0205115630
Cl  0.4407076392  0.2793966616 -0.1181789073
2
step 268
 H -0.8439890490 -0.0494526160  0.0209174155
Cl  0.4359710488  0.2813343607 -0.1189985132
2
step 269
 H -0.8539627108 -0.0500550733  0.0211722423
Cl  0.4310355898  0.2833251167 -0.1198405611
2
step 270
 H -0.8622709582 -0.0501586970  0.0212160729
Cl  0.4258924616  0.2853623157 -0.1207022534
2
step 271
 H -0.8685304810 -0.0496646776  0.0210071131
Cl  0.4205393476  0.2874399031 -0.1215810291
2
step 272
 H -0.8725578904 -0.0485263556  0.0205256269
Cl  0.4149811673  0.2895527201 -0.1224747063
2
step 273
 H -0.8743889836 -0.0467548191  0.0197763042
Cl  0.4092304351  0.2916967346 -0.1233815792
2
step 274
 H -0.8742834795 -0.0444207713  0.0187890511
Cl  0.4033072049  0.2938691655 -0.1243004718
2
step 275
 H -0.8727134774 -0.0416521249  0.0176179720
Cl  0.3972385247  0.2960684971 -0.1252307428
2
step 276
 H -0.8703325685 -0.0386264140  0.0163381599
Cl  0.3910572928  0.2982943637 -0.1261722375
2
step 277
 H -0.8679198638 -0.0355622338  0.0150420762
Cl  0.3848003495  0.3005474257 -0.1271252353
2
step 278
 H -0.8663106140 -0.0326850112  0.0138250716
Cl  0.3785061610  0.3028285265 -0.1280900929
2
step 279
 H -0.8662911413 -0.0302177375  0.0127814668
Cl  0.3722115113  0.3051385504 -0.1290671844
2
step 280
 H -0.8685039450 -0.0283372002  0.0119860391
Cl  0.3659485613  0.3074772700 -0.1300564136
2
step 281
 H -0.8733480507 -0.0271586812  0.0114875503
Cl  0.3597418911  0.3098429579 -0.1310570498
2
step 282
 H -0.8809180715 -0.0267159768  0.0113002957
Cl  0.3536067577  0.3122318227 -0.1320674893
2
step 283
 H -0.8909883579 -0.0269552420  0.0114014998
Cl  0.3475487041  0.3146378113 -0.1330851719
2
step 284
 H -0.9030475187 -0.0277431595  0.0117347724
Cl  0.3415646013  0.3170528181 -0.1341066689
2
step 285
 H -0.9163742100 -0.0288868434  0.0122185266
Cl  0.3356448033  0.3194672508 -0.1351279231
2
step 286
 H -0.9301348407 -0.0301662107  0.0127596720
Cl  0.3297758458  0.3218709810 -0.1361446504
2
step 287
 H -0.9434863431 -0.0313501909  0.0132604707
Cl  0.3239432309  0.3242538571 -0.1371525568
2
step 288
 H -0.9556635878 -0.0322230693  0.0136296799
Cl  0.3181337684  0.3266065071 -0.1381476783
2
step 289
 H -0.9660455524 -0.0326108509  0.0137937034
Cl  0.3123373605  0.3289211256 -0.1391267132
2
step 290
 H -0.9741990503 -0.0323917891  0.0137010448
Cl  0.3065482262  0.3311917796 -0.1400871520
2
step 291
 H -0.9799028870 -0.0315032488  0.0133252110
Cl  0.3007656509  0.3334145803 -0.1410273499
2
step 292
 H -0.9831558557 -0.0299445437  0.0126659115
Cl  0.2949943315  0.3355877189 -0.1419465419
2
step 293
 H -0.9841716051 -0.0277761612  0.0117487314
Cl  0.2892443646  0.3377113944 -0.1428448119
2
step 294
 H -0.9833613734 -0.0251154931  0.0106233247
Cl  0.2835308655  0.3397876498 -0.1437230242
2
step 295
 H -0.9813036244 -0.0221287010  0.0093599746
Cl  0.2778731635  0.3418201197 -0.1445827162
2
step 296
 H -0.9786986461 -0.0190180901  0.0080442516
Cl  0.2722935096  0.3438136707 -0.1454259463
2
step 297
 H -0.9763069461 -0.0160045808  0.0067696006
Cl  0.2668152815  0.3457739204 -0.1462550907
2
step 298