2
step 0
He -1.9716728484  0.0000000000  0.0000000000
He  2.9716728529  0.0000000000  0.0000000000
2
step 1
He -1.9689630821 -0.0048718764 -0.0038185797
He  2.9689630866  0.0048718764  0.0038185797
2
step 2
He -1.9662978063 -0.0096637637 -0.0075744638
He  2.9662978107  0.0096637637  0.0075744638
2
step 3
He -1.9636761959 -0.0143771451 -0.0112688149
He  2.9636762004  0.0143771451  0.0112688149
2
step 4
He -1.9610973761 -0.0190135934 -0.0149028659
He  2.9610973806  0.0190135934  0.0149028659
2
step 5
He -1.9585604285 -0.0235747599 -0.0184779109
He  2.9585604330  0.0235747599  0.0184779109
2
step 6
He -1.9560643972 -0.0280623632 -0.0219952970
He  2.9560644017  0.0280623632  0.0219952970
2
step 7
He -1.9536082947 -0.0324781788 -0.0254564160
He  2.9536082991  0.0324781788  0.0254564160
2
step 8
He -1.9511911073 -0.0368240290 -0.0288626959
He  2.9511911118  0.0368240290  0.0288626959
2
step 9
He -1.9488118011 -0.0411017728 -0.0322155941
He  2.9488118055  0.0411017728  0.0322155941
2
step 10
He -1.9464693263 -0.0453132975 -0.0355165896
He  2.9464693308  0.0453132975  0.0355165896
2
step 11
He -1.9441626226 -0.0494605096 -0.0387671770
He  2.9441626271  0.0494605096  0.0387671770
2
step 12
He -1.9418906229 -0.0535453275 -0.0419688597
He  2.9418906274  0.0535453275  0.0419688597
2
step 13
He -1.9396522579 -0.0575696738 -0.0451231447
He  2.9396522624  0.0575696738  0.0451231447
2
step 14
He -1.9374464594 -0.0615354688 -0.0482315372
He  2.9374464639  0.0615354688  0.0482315372
2
step 15
He -1.9352721639 -0.0654446247 -0.0512955360
He  2.9352721684  0.0654446247  0.0512955360
2
step 16
He -1.9331283153 -0.0692990403 -0.0543166292
He  2.9331283198  0.0692990403  0.0543166292
2
step 17
He -1.9310138678 -0.0731005959 -0.0572962908
He  2.9310138723  0.0731005959  0.0572962908
2
step 18
He -1.9289277878 -0.0768511496 -0.0602359770
He  2.9289277923  0.0768511496  0.0602359770
2
step 19
He -1.9268690566 -0.0805525332 -0.0631371237
He  2.9268690610  0.0805525332  0.0631371237
2
step 20
He -1.9248366712 -0.0842065496 -0.0660011439
He  2.9248366757  0.0842065496  0.0660011439
2
step 21
He -1.9228296465 -0.0878149700 -0.0688294260
He  2.9228296510  0.0878149700  0.0688294260
2
step 22
He -1.9208470163 -0.0913795318 -0.0716233317
He  2.9208470208  0.0913795318  0.0716233317
2
step 23
He -1.9188878340 -0.0949019369 -0.0743841949
He  2.9188878384  0.0949019369  0.0743841949
2
step 24
He -1.9169511733 -0.0983838503 -0.0771133207
He  2.9169511778  0.0983838503  0.0771133207
2
step 25
He -1.9150361292 -0.1018268993 -0.0798119846
He  2.9150361337  0.1018268993  0.0798119846
2
step 26
He -1.9131418180 -0.1052326729 -0.0824814320
He  2.9131418225  0.1052326729  0.0824814320
2
step 27
He -1.9112673774 -0.1086027211 -0.0851228777
He  2.9112673819  0.1086027211  0.0851228777
2
step 28
He -1.9094119669 -0.1119385552 -0.0877375065
He  2.9094119714  0.1119385552  0.0877375065
2
step 29
He -1.9075747674 -0.1152416479 -0.0903264725
He  2.9075747718  0.1152416479  0.0903264725
2
step 30
He -1.9057549811 -0.1185134333 -0.0928908999
He  2.9057549856  0.1185134333  0.0928908999
2
step 31
He -1.9039518314 -0.1217553079 -0.0954318832
He  2.9039518359  0.1217553079  0.0954318832
2
step 32
He -1.9021645623 -0.1249686309 -0.0979504877
He  2.9021645668  0.1249686309  0.0979504877
2
step 33
He -1.9003924379 -0.1281547253 -0.1004477503
He  2.9003924424  0.1281547253  0.1004477503
2
step 34
He -1.8986347422 -0.1313148785 -0.1029246803
He  2.8986347466  0.1313148785  0.1029246803
2
step 35
He -1.8968907780 -0.1344503437 -0.1053822598
He  2.8968907825  0.1344503437  0.1053822598
2
step 36
He -1.8951598669 -0.1375623409 -0.1078214450
He  2.8951598714  0.1375623409  0.1078214450
2
step 37
He -1.8934413481 -0.1406520580 -0.1102431672
He  2.8934413526  0.1406520580  0.1102431672
2
step 38
He -1.8917345780 -0.1437206523 -0.1126483332
He  2.8917345825  0.1437206523  0.1126483332
2
step 39
He -1.8900389291 -0.1467692517 -0.1150378273
He  2.8900389336  0.1467692517  0.1150378273
2
step 40
He -1.8883537896 -0.1497989563 -0.1174125115
He  2.8883537941  0.1497989563  0.1174125115
2
step 41
He -1.8866785625 -0.1528108396 -0.1197732275
He  2.8866785669  0.1528108396  0.1197732275
2
step 42
He -1.8850126643 -0.1558059504 -0.1221207971
He  2.8850126687  0.1558059504  0.1221207971
2
step 43
He -1.8833555246 -0.1587853142 -0.1244560243
He  2.8833555291  0.1587853142  0.1244560243
2
step 44
He -1.8817065852 -0.1617499350 -0.1267796958
He  2.8817065896  0.1617499350  0.1267796958
2
step 45
He -1.8800652984 -0.1647007970 -0.1290925832
He  2.8800653029  0.1647007970  0.1290925832
2
step 46
He -1.8784311268 -0.1676388667 -0.1313954440
He  2.8784311313  0.1676388667  0.1313954440
2
step 47
He -1.8768035417 -0.1705650945 -0.1336890231
He  2.8768035462  0.1705650945  0.1336890231
2
step 48
He -1.8751820221 -0.1734804173 -0.1359740548
He  2.8751820266  0.1734804173  0.1359740548
2
step 49
He -1.8735660532 -0.1763857605 -0.1382512645
He  2.8735660577  0.1763857605  0.1382512645
2
step 50
He -1.8719551253 -0.1792820405 -0.1405213706
He  2.8719551297  0.1792820405  0.1405213706
2
step 51
He -1.8703487320 -0.1821701677 -0.1427850864
He  2.8703487365  0.1821701677  0.1427850864
2
step 52
He -1.8687463688 -0.1850510491 -0.1450431230
He  2.8687463733  0.1850510491  0.1450431230
2
step 53
He -1.8671475312 -0.1879255920 -0.1472961914
He  2.8671475357  0.1879255920  0.1472961914
2
step 54
He -1.8655517124 -0.1907947074 -0.1495450058
He  2.8655517169  0.1907947074  0.1495450058
2
step 55
He -1.8639584011 -0.1936593145 -0.1517902865
He  2.8639584056  0.1936593145  0.1517902865
2
step 56
He -1.8623670791 -0.1965203452 -0.1540327641
He  2.8623670836  0.1965203452  0.1540327641
2
step 57
He -1.8607772179 -0.1993787495 -0.1562731831
He  2.8607772223  0.1993787495  0.1562731831
2
step 58
He -1.8591882754 -0.2022355020 -0.1585123075
He  2.8591882798  0.2022355020  0.1585123075
2
step 59
He -1.8575996921 -0.2050916086 -0.1607509255
He  2.8575996966  0.2050916086  0.1607509255
2
step 60
He -1.8560108866 -0.2079481149 -0.1629898569
He  2.8560108910  0.2079481149  0.1629898569
2
step 61
He -1.8544212499 -0.2108061156 -0.1652299595
He  2.8544212543  0.2108061156  0.1652299595
2
step 62
He -1.8528301398 -0.2136667651 -0.1674721383
He  2.8528301443  0.2136667651  0.1674721383
2
step 63
He -1.8512368740 -0.2165312905 -0.1697173550
He  2.8512368785  0.2165312905  0.1697173550
2
step 64
He -1.8496407217 -0.2194010055 -0.1719666393
He  2.8496407262  0.2194010055  0.1719666393
2
step 65
He -1.8480408948 -0.2222773272 -0.1742211020
He  2.8480408992  0.2222773272  0.1742211020
2
step 66
He -1.8464365370 -0.2251617947 -0.1764819493
He  2.8464365415  0.2251617947  0.1764819493
2
step 67
He -1.8448267128 -0.2280560904 -0.1787505001
He  2.8448267173  0.2280560904  0.1787505001
2
step 68
He -1.8432103933 -0.2309620639 -0.1810282039
He  2.8432103978  0.2309620639  0.1810282039
2
step 69
He -1.8415864421 -0.2338817584 -0.1833166622
He  2.8415864466  0.2338817584  0.1833166622
2
step 70
He -1.8399535990 -0.2368174396 -0.1856176508
He  2.8399536035  0.2368174396  0.1856176508
2
step 71
He -1.8383104627 -0.2397716271 -0.1879331447
He  2.8383104671  0.2397716271  0.1879331447
2
step 72
He -1.8366554721 -0.2427471271 -0.1902653434
He  2.8366554766  0.2427471271  0.1902653434
2
step 73
He -1.8349868880 -0.2457470670 -0.1926166981
He  2.8349868924  0.2457470670  0.1926166981
2
step 74
He -1.8333027730 -0.2487749298 -0.1949899388
He  2.8333027774  0.2487749298  0.1949899388
2
step 75
He -1.8316009736 -0.2518345872 -0.1973881000
He  2.8316009781  0.2518345872  0.1973881000
2
step 76
He -1.8298791026 -0.2549303313 -0.1998145462
He  2.8298791071  0.2549303313  0.1998145462
2
step 77
He -1.8281345234 -0.2580669023 -0.2022729924
He  2.8281345279  0.2580669023  0.2022729924
2
step 78
He -1.8263643380 -0.2612495107 -0.2047675227
He  2.8263643425  0.2612495107  0.2047675227
2
step 79
He -1.8245653784 -0.2644838520 -0.2073026014
He  2.8245653829  0.2644838520  0.2073026014
2
step 80
He -1.8227342032 -0.2677761137 -0.2098830781
He  2.8227342077  0.2677761137  0.2098830781
2
step 81
He -1.8208671002 -0.2711329698 -0.2125141839
He  2.8208671047  0.2711329698  0.2125141839
2
step 82
He -1.8189600961 -0.2745615639 -0.2152015180
He  2.8189601006  0.2745615639  0.2152015180
2
step 83
He -1.8170089742 -0.2780694772 -0.2179510225
He  2.8170089787  0.2780694772  0.2179510225
2
step 84
He -1.8150093017 -0.2816646794 -0.2207689442
He  2.8150093062  0.2816646794  0.2207689442
2
step 85
He -1.8129564660 -0.2853554636 -0.2236617830
He  2.8129564704  0.2853554636  0.2236617830
2
step 86
He -1.8108457222 -0.2891503604 -0.2266362254
He  2.8108457267  0.2891503604  0.2266362254
2
step 87
He -1.8086722508 -0.2930580348 -0.2296990630
He  2.8086722553  0.2930580348  0.2296990630
2
step 88
He -1.8064312253 -0.2970871645 -0.2328570972
He  2.8064312298  0.2970871645  0.2328570972
2
step 89
He -1.8041178885 -0.3012463023 -0.2361170319
He  2.8041178930  0.3012463023  0.2361170319
2
step 90
He -1.8017276355 -0.3055437275 -0.2394853563
He  2.8017276400  0.3055437275  0.2394853563
2
step 91
He -1.7992561002 -0.3099872896 -0.2429682230
He  2.7992561047  0.3099872896  0.2429682230
2
step 92
He -1.7966992423 -0.3145842530 -0.2465713257
He  2.7966992468  0.3145842530  0.2465713257
2
step 93
He -1.7940534298 -0.3193411476 -0.2502997825
He  2.7940534342  0.3193411476  0.2502997825
2
step 94
He -1.7913155137 -0.3242636346 -0.2541580308
He  2.7913155182  0.3242636346  0.2541580308
2
step 95
He -1.7884828912 -0.3293563939 -0.2581497385
He  2.7884828957  0.3293563939  0.2581497385
2
step 96
He -1.7855535535 -0.3346230370 -0.2622777365
He  2.7855535580  0.3346230370  0.2622777365
2
step 97
He -1.7825261172 -0.3400660513 -0.2665439744
He  2.7825261217  0.3400660513  0.2665439744
2
step 98
He -1.7793998375 -0.3456867755 -0.2709495014
He  2.7793998420  0.3456867755  0.2709495014
2
step 99
He -1.7761746055 -0.3514854057 -0.2754944712
He  2.7761746100  0.3514854057  0.2754944712
2
step 100
He -1.7728509291 -0.3574610287 -0.2801781681
He  2.7728509336  0.3574610287  0.2801781681
2
step 101
He -1.7694299015 -0.3636116789 -0.2849990514
He  2.7694299060  0.3636116789  0.2849990514
2
step 102
He -1.7659131604 -0.3699344121 -0.2899548135
He  2.7659131648  0.3699344121  0.2899548135
2
step 103
He -1.7623028396 -0.3764253917 -0.2950424472
He  2.7623028441  0.3764253917  0.2950424472
2
step 104
He -1.7586015184 -0.3830799805 -0.3002583178
He  2.7586015229  0.3830799805  0.3002583178
2
step 105
He -1.7548121696 -0.3898928338 -0.3055982364
He  2.7548121741  0.3898928338  0.3055982364
2
step 106
He -1.7509381087 -0.3968579906 -0.3110575304
He  2.7509381132  0.3968579906  0.3110575304
2
step 107
He -1.7469829473 -0.4039689577 -0.3166311107
He  2.7469829518  0.4039689577  0.3166311107
2
step 108
He -1.7429505494 -0.4112187879 -0.3223135319
He  2.7429505539  0.4112187879  0.3223135319
2
step 109
He -1.7388449935 -0.4186001485 -0.3280990468
He  2.7388449980  0.4186001485  0.3280990468
2
step 110
He -1.7346705389 -0.4261053819 -0.3339816532
He  2.7346705434  0.4261053819  0.3339816532
2
step 111
He -1.7304315968 -0.4337265570 -0.3399551348
He  2.7304316013  0.4337265570  0.3399551348
2
step 112
He -1.7261327059 -0.4414555139 -0.3460130958
He  2.7261327104  0.4414555139  0.3460130958
2
step 113
He -1.7217785109 -0.4492839017 -0.3521489909
He  2.7217785154  0.4492839017  0.3521489909
2
step 114
He -1.7173737451 -0.4572032106 -0.3583561499
He  2.7173737496  0.4572032106  0.3583561499
2
step 115
He -1.7129232142 -0.4652048003 -0.3646278007
He  2.7129232187  0.4652048003  0.3646278007
2
step 116
He -1.7084317829 -0.4732799246 -0.3709570880
He  2.7084317874  0.4732799246  0.3709570880
2
step 117
He -1.7039043620 -0.4814197546 -0.3773370916
He  2.7039043665  0.4814197546  0.3773370916
2
step 118
He -1.6993458964 -0.4896153998 -0.3837608432
He  2.6993459008  0.4896153998  0.3837608432
2
step 119
He -1.6947613535 -0.4978579291 -0.3902213426
He  2.6947613580  0.4978579291  0.3902213426
2
step 120
He -1.6901557118 -0.5061383919 -0.3967115743
He  2.6901557162  0.5061383919  0.3967115743
2
step 121
He -1.6855339486 -0.5144478394 -0.4032245243
He  2.6855339531  0.5144478394  0.4032245243
2
step 122
He -1.6809010279 -0.5227773469 -0.4097531972
He  2.6809010324  0.5227773469  0.4097531972
2
step 123
He -1.6762618876 -0.5311180369 -0.4162906350
He  2.6762618921  0.5311180369  0.4162906350
2
step 124
He -1.6716214254 -0.5394611034 -0.4228299355
He  2.6716214298  0.5394611034  0.4228299355
2
step 125
He -1.6669844852 -0.5477978376 -0.4293642728
He  2.6669844897  0.5477978376  0.4293642728
2
step 126
He -1.6623558421 -0.5561196545 -0.4358869178
He  2.6623558466  0.5561196545  0.4358869178
2
step 127
He -1.6577401871 -0.5644181202 -0.4423912602
He  2.6577401916  0.5644181202  0.4423912602
2
step 128
He -1.6531421113 -0.5726849805 -0.4488708303
He  2.6531421158  0.5726849805  0.4488708303
2
step 129
He -1.6485660896 -0.5809121898 -0.4553193218
He  2.6485660941  0.5809121898  0.4553193218
2
step 130
He -1.6440164648 -0.5890919401 -0.4617306150
He  2.6440164693  0.5890919401  0.4617306150
2
step 131
He -1.6394974311 -0.5972166908 -0.4680987995
He  2.6394974356  0.5972166908  0.4680987995
2
step 132
He -1.6350130180 -0.6052791974 -0.4744181970
He  2.6350130225  0.6052791974  0.4744181970
2
step 133
He -1.6305670743 -0.6132725400 -0.4806833837
He  2.6305670788  0.6132725400  0.4806833837
2
step 134
He -1.6261632532 -0.6211901506 -0.4868892116
He  2.6261632577  0.6211901506  0.4868892116
2
step 135
He -1.6218049975 -0.6290258395 -0.4930308292
He  2.6218050020  0.6290258395  0.4930308292
2
step 136
He -1.6174955261 -0.6367738192 -0.4991037004
He  2.6174955306  0.6367738192  0.4991037004
2
step 137
He -1.6132378217 -0.6444287272 -0.5051036219
He  2.6132378262  0.6444287272  0.5051036219
2
step 138
He -1.6090346198 -0.6519856455 -0.5110267389
He  2.6090346243  0.6519856455  0.5110267389
2
step 139
He -1.6048883990 -0.6594401178 -0.5168695588
He  2.6048884035  0.6594401178  0.5168695588
2
step 140
He -1.6008013734 -0.6667881632 -0.5226289612
He  2.6008013779  0.6667881632  0.5226289612
2
step 141
He -1.5967754869 -0.6740262870 -0.5283022069
He  2.5967754914  0.6740262870  0.5283022069
2
step 142
He -1.5928124091 -0.6811514872 -0.5338869431
He  2.5928124136  0.6811514872  0.5338869431
2
step 143
He -1.5889135341 -0.6881612576 -0.5393812053
He  2.5889135385  0.6881612576  0.5393812053
2
step 144
He -1.5850799804 -0.6950535870 -0.5447834172
He  2.5850799849  0.6950535870  0.5447834172
2
step 145
He -1.5813125946 -0.7018269535 -0.5500923860
He  2.5813125991  0.7018269535  0.5500923860
2
step 146
He -1.5776119557 -0.7084803161 -0.5553072955
He  2.5776119602  0.7084803161  0.5553072955
2
step 147
He -1.5739783828 -0.7150131011 -0.5604276963
He  2.5739783872  0.7150131011  0.5604276963
2
step 148
He -1.5704119441 -0.7214251857 -0.5654534921
He  2.5704119486  0.7214251857  0.5654534921
2
step 149
He -1.5669124686 -0.7277168775 -0.5703849239
He  2.5669124731  0.7277168775  0.5703849239
2
step 150
He -1.5634795587 -0.7338888913 -0.5752225519
He  2.5634795632  0.7338888913  0.5752225519
2
step 151
He -1.5601126051 -0.7399423226 -0.5799672350
He  2.5601126096  0.7399423226  0.5799672350
2
step 152
He -1.5568108022 -0.7458786197 -0.5846201083
He  2.5568108067  0.7458786197  0.5846201083
2
step 153
He -1.5535731652 -0.7516995533 -0.5891825595
He  2.5535731697  0.7516995533  0.5891825595
2
step 154
He -1.5503985474 -0.7574071850 -0.5936562046
He  2.5503985519  0.7574071850  0.5936562046
2
step 155
He -1.5472856582 -0.7630038351 -0.5980428624
He  2.5472856626  0.7630038351  0.5980428624
2
step 156
He -1.5442330810 -0.7684920505 -0.6023445289
He  2.5442330854  0.7684920505  0.6023445289
2
step 157
He -1.5412392911 -0.7738745724 -0.6065633527
He  2.5412392956  0.7738745724  0.6065633527
2
step 158
He -1.5383026734 -0.7791543047 -0.6107016101
He  2.5383026779  0.7791543047  0.6107016101
2
step 159
He -1.5354215387 -0.7843342844 -0.6147616813
He  2.5354215432  0.7843342844  0.6147616813
2
step 160
He -1.5325941402 -0.7894176520 -0.6187460279
He  2.5325941447  0.7894176520  0.6187460279
2
step 161
He -1.5298186883 -0.7944076252 -0.6226571718
He  2.5298186928  0.7944076252  0.6226571718
2
step 162
He -1.5270933645 -0.7993074733 -0.6264976757
He  2.5270933689  0.7993074733  0.6264976757
2
step 163
He -1.5244163343 -0.8041204944 -0.6302701245
He  2.5244163388  0.8041204944  0.6302701245
2
step 164
He -1.5217857589 -0.8088499947 -0.6339771096
He  2.5217857634  0.8088499947  0.6339771096
2
step 165
He -1.5191998051 -0.8134992700 -0.6376212144
He  2.5191998096  0.8134992700  0.6376212144
2
step 166
He -1.5166566546 -0.8180715895 -0.6412050012
He  2.5166566591  0.8180715895  0.6412050012
2
step 167
He -1.5141545118 -0.8225701813 -0.6447310001
He  2.5141545163  0.8225701813  0.6447310001
2
step 168
He -1.5116916106 -0.8269982209 -0.6482017002
He  2.5116916151  0.8269982209  0.6482017002
2
step 169
He -1.5092662197 -0.8313588209 -0.6516195411
He  2.5092662242  0.8313588209  0.6516195411
2
step 170
He -1.5068766474 -0.8356550229 -0.6549869068
He  2.5068766519  0.8356550229  0.6549869068
2
step 171
He -1.5045212450 -0.8398897909 -0.6583061205
He  2.5045212495  0.8398897909  0.6583061205
2
step 172
He -1.5021984099 -0.8440660064 -0.6615794407
He  2.5021984143  0.8440660064  0.6615794407
2
step 173
He -1.4999065871 -0.8481864649 -0.6648090585
He  2.4999065916  0.8481864649  0.6648090585
2
step 174
He -1.4976442710 -0.8522538734 -0.6679970957
He  2.4976442755  0.8522538734  0.6679970957
2
step 175
He -1.4954100060 -0.8562708492 -0.6711456038
He  2.4954100104  0.8562708492  0.6711456038
2
step 176
He -1.4932023862 -0.8602399195 -0.6742565635
He  2.4932023907  0.8602399195  0.6742565635
2
step 177
He -1.4910200559 -0.8641635220 -0.6773318854
He  2.4910200604  0.8641635220  0.6773318854
2
step 178
He -1.4888617086 -0.8680440055 -0.6803734107
He  2.4888617131  0.8680440055  0.6803734107
2
step 179
He -1.4867260861 -0.8718836323 -0.6833829125
He  2.4867260906  0.8718836323  0.6833829125
2
step 180
He -1.4846119773 -0.8756845797 -0.6863620974
He  2.4846119818  0.8756845797  0.6863620974
2
step 181
He -1.4825182169 -0.8794489428 -0.6893126074
He  2.4825182214  0.8794489428  0.6893126074
2
step 182
He -1.4804436838 -0.8831787371 -0.6922360224
He  2.4804436883  0.8831787371  0.6922360224
2
step 183
He -1.4783872997 -0.8868759017 -0.6951338622
He  2.4783873042  0.8868759017  0.6951338622
2
step 184
He -1.4763480268 -0.8905423020 -0.6980075889
He  2.4763480312  0.8905423020  0.6980075889
2
step 185
He -1.4743248665 -0.8941797334 -0.7008586099
He  2.4743248710  0.8941797334  0.7008586099
2
step 186
He -1.4723168575 -0.8977899245 -0.7036882798
He  2.4723168620  0.8977899245  0.7036882798
2
step 187
He -1.4703230737 -0.9013745402 -0.7064979037
He  2.4703230781  0.9013745402  0.7064979037
2
step 188
He -1.4683426225 -0.9049351851 -0.7092887394
He  2.4683426270  0.9049351851  0.7092887394
2
step 189
He -1.4663746432 -0.9084734071 -0.7120619999
He  2.4663746476  0.9084734071  0.7120619999
2
step 190
He -1.4644183046 -0.9119907001 -0.7148188562
He  2.4644183091  0.9119907001  0.7148188562
2
step 191
He -1.4624728040 -0.9154885076 -0.7175604399
He  2.4624728085  0.9154885076  0.7175604399
2
step 192
He -1.4605373648 -0.9189682258 -0.7202878450
He  2.4605373693  0.9189682258  0.7202878450
2
step 193
He -1.4586112352 -0.9224312063 -0.7230021312
He  2.4586112397  0.9224312063  0.7230021312
2
step 194
He -1.4566936865 -0.9258787594 -0.7257043254
He  2.4566936909  0.9258787594  0.7257043254
2
step 195
He -1.4547840112 -0.9293121567 -0.7283954243
He  2.4547840157  0.9293121567  0.7283954243
2
step 196
He -1.4528815220 -0.9327326343 -0.7310763967
He  2.4528815265  0.9327326343  0.7310763967
2
step 197
He -1.4509855499 -0.9361413948 -0.7337481852
He  2.4509855543  0.9361413948  0.7337481852
2
step 198
He -1.4490954428 -0.9395396106 -0.7364117088
He  2.4490954473  0.9395396106  0.7364117088
2
step 199
He -1.4472105643 -0.9429284260 -0.7390678643
He  2.4472105688  0.9429284260  0.7390678643
2
step 200
He -1.4453302921 -0.9463089597 -0.7417175287
He  2.4453302966  0.9463089597  0.7417175287
2
step 201
He -1.4434540167 -0.9496823077 -0.7443615608
He  2.4434540212  0.9496823077  0.7443615608
2
step 202
He -1.4415811402 -0.9530495448 -0.7470008033
He  2.4415811446  0.9530495448  0.7470008033
2
step 203
He -1.4397110748 -0.9564117276 -0.7496360842
He  2.4397110793  0.9564117276  0.7496360842
2
step 204
He -1.4378432421 -0.9597698966 -0.7522682190
He  2.4378432466  0.9597698966  0.7522682190
2
step 205
He -1.4359770710 -0.9631250781 -0.7548980123
He  2.4359770755  0.9631250781  0.7548980123
2
step 206
He -1.4341119972 -0.9664782868 -0.7575262593
He  2.4341120016  0.9664782868  0.7575262593
2
step 207
He -1.4322474615 -0.9698305280 -0.7601537479
He  2.4322474659  0.9698305280  0.7601537479
2
step 208
He -1.4303829088 -0.9731827996 -0.7627812605
He  2.4303829133  0.9731827996  0.7627812605
2
step 209
He -1.4285177870 -0.9765360946 -0.7654095751
He  2.4285177915  0.9765360946  0.7654095751
2
step 210
He -1.4266515453 -0.9798914032 -0.7680394680
He  2.4266515498  0.9798914032  0.7680394680
2
step 211
He -1.4247836329 -0.9832497153 -0.7706717150
He  2.4247836374  0.9832497153  0.7706717150
2
step 212
He -1.4229134983 -0.9866120228 -0.7733070936
He  2.4229135028  0.9866120228  0.7733070936
2
step 213
He -1.4210405871 -0.9899793225 -0.7759463851
He  2.4210405915  0.9899793225  0.7759463851
2
step 214
He -1.4191643407 -0.9933526183 -0.7785903764
He  2.4191643452  0.9933526183  0.7785903764
2
step 215
He -1.4172841953 -0.9967329242 -0.7812398622
He  2.4172841998  0.9967329242  0.7812398622
2
step 216
He -1.4153995794 -1.0001212677 -0.7838956478
He  2.4153995838  1.0001212677  0.7838956478
2
step 217
He -1.4135099124 -1.0035186925 -0.7865585514
He  2.4135099168  1.0035186925  0.7865585514
2
step 218
He -1.4116146027 -1.0069262622 -0.7892294066
He  2.4116146072  1.0069262622  0.7892294066
2
step 219
He -1.4097130455 -1.0103450642 -0.7919090657
He  2.4097130500  1.0103450642  0.7919090657
2
step 220
He -1.4078046204 -1.0137762142 -0.7945984030
He  2.4078046249  1.0137762142  0.7945984030
2
step 221
He -1.4058886889 -1.0172208599 -0.7972983184
He  2.4058886934  1.0172208599  0.7972983184
2
step 222
He -1.4039645914 -1.0206801871 -0.8000097411
He  2.4039645959  1.0206801871  0.8000097411
2
step 223
He -1.4020316444 -1.0241554249 -0.8027336346
He  2.4020316489  1.0241554249  0.8027336346
2
step 224
He -1.4000891365 -1.0276478520 -0.8054710011
He  2.4000891410  1.0276478520  0.8054710011
2
step 225
He -1.3981363249 -1.0311588043 -0.8082228876
He  2.3981363294  1.0311588043  0.8082228876
2
step 226
He -1.3961724304 -1.0346896825 -0.8109903920
He  2.3961724349  1.0346896825  0.8109903920
2
step 227
He -1.3941966328 -1.0382419612 -0.8137746702
He  2.3941966373  1.0382419612  0.8137746702
2
step 228
He -1.3922080649 -1.0418171996 -0.8165769442
He  2.3922080694  1.0418171996  0.8165769442
2
step 229
He -1.3902058061 -1.0454170529 -0.8193985113
He  2.3902058105  1.0454170529  0.8193985113
2
step 230
He -1.3881888748 -1.0490432855 -0.8222407547
He  2.3881888793  1.0490432855  0.8222407547
2
step 231
He -1.3861562205 -1.0526977868 -0.8251051550
He  2.3861562250  1.0526977868  0.8251051550
2
step 232
He -1.3841067133 -1.0563825877 -0.8279933041
He  2.3841067178  1.0563825877  0.8279933041
2
step 233
He -1.3820391337 -1.0600998809 -0.8309069208
He  2.3820391382  1.0600998809  0.8309069208
2
step 234
He -1.3799521597 -1.0638520433 -0.8338478679
He  2.3799521642  1.0638520433  0.8338478679
2
step 235
He -1.3778443525 -1.0676416616 -0.8368181729
He  2.3778443570  1.0676416616  0.8368181729
2
step 236
He -1.3757141405 -1.0714715614 -0.8398200507
He  2.3757141450  1.0714715614  0.8398200507
2
step 237
He -1.3735598007 -1.0753448405 -0.8428559292
He  2.3735598052  1.0753448405  0.8428559292
2
step 238
He -1.3713794379 -1.0792649061 -0.8459284790
He  2.3713794424  1.0792649061  0.8459284790
2
step 239
He -1.3691709617 -1.0832355168 -0.8490406460
He  2.3691709662  1.0832355168  0.8490406460
2
step 240
He -1.3669320601 -1.0872608292 -0.8521956883
He  2.3669320646  1.0872608292  0.8521956883
2
step 241
He -1.3646601712 -1.0913454496 -0.8553972161
He  2.3646601756  1.0913454496  0.8553972161
2
step 242
He -1.3623524514 -1.0954944898 -0.8586492364
He  2.3623524559  1.0954944898  0.8586492364
2
step 243
He -1.3600057428 -1.0997136281 -0.8619561995
He  2.3600057473  1.0997136281  0.8619561995
2
step 244
He -1.3576165371 -1.1040091718 -0.8653230492
He  2.3576165415  1.1040091718  0.8653230492
2
step 245
He -1.3551809403 -1.1083881218 -0.8687552728
He  2.3551809447  1.1083881218  0.8687552728
2
step 246
He -1.3526946376 -1.1128582356 -0.8722589507
He  2.3526946421  1.1128582356  0.8722589507
2
step 247
He -1.3501528613 -1.1174280852 -0.8758408016
He  2.3501528658  1.1174280852  0.8758408016
2
step 248
He -1.3475503642 -1.1221071047 -0.8795082199
He  2.3475503686  1.1221071047  0.8795082199
2
step 249
He -1.3448814017 -1.1269056220 -0.8832693005
He  2.3448814062  1.1269056220  0.8832693005
2
step 250
He -1.3421397283 -1.1318348659 -0.8871328449
He  2.3421397328  1.1318348659  0.8871328449
2
step 251
He -1.3393186111 -1.1369069415 -0.8911083407
He  2.3393186156  1.1369069415  0.8911083407
2
step 252
He -1.3364108676 -1.1421347622 -0.8952059098
He  2.3364108721  1.1421347622  0.8952059098
2
step 253
He -1.3334089320 -1.1475319305 -0.8994362135
He  2.3334089365  1.1475319305  0.8994362135
2
step 254
He -1.3303049557 -1.1531125575 -0.9038103123
He  2.3303049601  1.1531125575  0.9038103123
2
step 255
He -1.3270909440 -1.1588910166 -0.9083394720
He  2.3270909484  1.1588910166  0.9083394720
2
step 256
He -1.3237589322 -1.1648816277 -0.9130349165
He  2.3237589366  1.1648816277  0.9130349165
2
step 257
He -1.3203011963 -1.1710982774 -0.9179075303
He  2.3203012008  1.1710982774  0.9179075303
2
step 258
He -1.3167104945 -1.1775539863 -0.9229675188
He  2.3167104990  1.1775539863  0.9229675188
2
step 259
He -1.3129803262 -1.1842604414 -0.9282240423
He  2.3129803307  1.1842604414  0.9282240423
2
step 260
He -1.3091051973 -1.1912275207 -0.9336848432
He  2.3091052017  1.1912275207  0.9336848432
2
step 261
He -1.3050808709 -1.1984628413 -0.9393558919
He  2.3050808754  1.1984628413  0.9393558919
2
step 262
He -1.3009045890 -1.2059713625 -0.9452410752
He  2.3009045934  1.2059713625  0.9452410752
2
step 263
He -1.2965752448 -1.2137550735 -0.9513419526
He  2.2965752493  1.2137550735  0.9513419526
2
step 264
He -1.2920934966 -1.2218127911 -0.9576575965
He  2.2920935011  1.2218127911  0.9576575965
2
step 265
He -1.2874618125 -1.2301400779 -0.9641845289
He  2.2874618170  1.2301400779  0.9641845289
2
step 266
He -1.2826844469 -1.2387292850 -0.9709167545
He  2.2826844514  1.2387292850  0.9709167545
2
step 267
He -1.2777673527 -1.2475697097 -0.9778458847
He  2.2777673571  1.2475697097  0.9778458847
2
step 268
He -1.2727180389 -1.2566478514 -0.9849613376
He  2.2727180433  1.2566478514  0.9849613376
2
step 269
He -1.2675453873 -1.2659477414 -0.9922505970
He  2.2675453918  1.2659477414  0.9922505970
2
step 270
He -1.2622594415 -1.2754513230 -0.9996995099
He  2.2622594460  1.2754513230  0.9996995099
2
step 271
He -1.2568711815 -1.2851388547 -1.0072926030
He  2.2568711860  1.2851388547  1.0072926030
2
step 272
He -1.2513922982 -1.2949893177 -1.0150134018
He  2.2513923027  1.2949893177  1.0150134018
2
step 273
He -1.2458349743 -1.3049808087 -1.0228447384
He  2.2458349788  1.3049808087  1.0228447384
2
step 274
He -1.2402116808 -1.3150909063 -1.0307690390
He  2.2402116853  1.3150909063  1.0307690390
2
step 275
He -1.2345349917 -1.3252970036 -1.0387685842
He  2.2345349962  1.3252970036  1.0387685842
2
step 276
He -1.2288174203 -1.3355766030 -1.0468257403
He  2.2288174248  1.3355766030  1.0468257403
2
step 277
He -1.2230712763 -1.3459075729 -1.0549231607
He  2.2230712808  1.3459075729  1.0549231607
2
step 278
He -1.2173085438 -1.3562683675 -1.0630439577
He  2.2173085482  1.3562683675  1.0630439577
2
step 279
He -1.2115407774 -1.3666382121 -1.0711718481
He  2.2115407819  1.3666382121  1.0711718481
2
step 280
He -1.2057790173 -1.3769972583 -1.0792912747
He  2.2057790218  1.3769972583  1.0792912747
2
step 281
He -1.2000337175 -1.3873267106 -1.0873875056
He  2.2000337220  1.3873267106  1.0873875056
2
step 282
He -1.1943146894 -1.3976089289 -1.0954467144
He  2.1943146939  1.3976089289  1.0954467144
2
step 283
He -1.1886310569 -1.4078275097 -1.1034560442
He  2.1886310614  1.4078275097  1.1034560442
2
step 284
He -1.1829912223 -1.4179673464 -1.1114036543
He  2.1829912268  1.4179673464  1.1114036543
2
step 285
He -1.1774028424 -1.4280146731 -1.1192787549
He  2.1774028468  1.4280146731  1.1192787549
2
step 286
He -1.1718728138 -1.4379570900 -1.1270716272
He  2.1718728183  1.4379570900  1.1270716272
2
step 287
He -1.1664072671 -1.4477835751 -1.1347736321
He  2.1664072716  1.4477835751  1.1347736321
2
step 288
He -1.1610115691 -1.4574844795 -1.1423772068
He  2.1610115736  1.4574844795  1.1423772068
2
step 289
He -1.1556903327 -1.4670515099 -1.1498758510
He  2.1556903372  1.4670515099  1.1498758510
2
step 290
He -1.1504474341 -1.4764776969 -1.1572641019
He  2.1504474386  1.4764776969  1.1572641019
2
step 291
He -1.1452860378 -1.4857573513 -1.1645375007
He  2.1452860423  1.4857573513  1.1645375007
2
step 292
He -1.1402086262 -1.4948860099 -1.1716925487
He  2.1402086307  1.4948860099  1.1716925487
2
step 293
He -1.1352170365 -1.5038603696 -1.1787266572
He  2.1352170410  1.5038603696  1.1787266572
2
step 294
He -1.1303125015 -1.5126782140 -1.1856380890
He  2.1303125060  1.5126782140  1.1856380890
2
step 295
He -1.1254956945 -1.5213383328 -1.1924258952
He  2.1254956989  1.5213383328  1.1924258952
2
step 296
He -1.1207667773 -1.5298404346 -1.1990898477
He  2.1207667817  1.5298404346  1.1990898477
2
step 297
He -1.1161254506 -1.5381850579 -1.2056303684
He  2.1161254550  1.5381850579  1.2056303684
2
step 298