2
step 0
He -1.9716728484  0.0000000000  0.0000000000
He  2.9716728529  0.0000000000  0.0000000000
2
step 1
He -1.9689624002 -0.0048731024 -0.0038195406
He  2.9689624047  0.0048731024  0.0038195406
2
step 2
He -1.9662964536 -0.0096661956 -0.0075763699
He  2.9662964581  0.0096661956  0.0075763699
2
step 3
He -1.9636741835 -0.0143807631 -0.0112716507
He  2.9636741880  0.0143807631  0.0112716507
2
step 4
He -1.9610947148 -0.0190183781 -0.0149066161
He  2.9610947193  0.0190183781  0.0149066161
2
step 5
He -1.9585571289 -0.0235806924 -0.0184825608
He  2.9585571333  0.0235806924  0.0184825608
2
step 6
He -1.9560604694 -0.0280694250 -0.0220008321
He  2.9560604739  0.0280694250  0.0220008321
2
step 7
He -1.9536037488 -0.0324863518 -0.0254628220
He  2.9536037533  0.0324863518  0.0254628220
2
step 8
He -1.9511859531 -0.0368332956 -0.0288699591
He  2.9511859576  0.0368332956  0.0288699591
2
step 9
He -1.9488060482 -0.0411121159 -0.0322237010
He  2.9488060527  0.0411121159  0.0322237010
2
step 10
He -1.9464629840 -0.0453247004 -0.0355255273
He  2.9464629884  0.0453247004  0.0355255273
2
step 11
He -1.9441556997 -0.0494729562 -0.0387769326
He  2.9441557042  0.0494729562  0.0387769326
2
step 12
He -1.9418831283 -0.0535588020 -0.0419794210
He  2.9418831328  0.0535588020  0.0419794210
2
step 13
He -1.9396442000 -0.0575841609 -0.0451344998
He  2.9396442045  0.0575841609  0.0451344998
2
step 14
He -1.9374378465 -0.0615509539 -0.0482436745
He  2.9374378510  0.0615509539  0.0482436745
2
step 15
He -1.9352630038 -0.0654610936 -0.0513084443
He  2.9352630083  0.0654610936  0.0513084443
2
step 16
He -1.9331186158 -0.0693164791 -0.0543302978
He  2.9331186202  0.0693164791  0.0543302978
2
step 17
He -1.9310036361 -0.0731189914 -0.0573107092
He  2.9310036406  0.0731189914  0.0573107092
2
step 18
He -1.9289170312 -0.0768704889 -0.0602511351
He  2.9289170357  0.0768704889  0.0602511351
2
step 19
He -1.9268577819 -0.0805728039 -0.0631530119
He  2.9268577863  0.0805728039  0.0631530119
2
step 20
He -1.9248248850 -0.0842277398 -0.0660177529
He  2.9248248895  0.0842277398  0.0660177529
2
step 21
He -1.9228173553 -0.0878370683 -0.0688467467
He  2.9228173598  0.0878370683  0.0688467467
2
step 22
He -1.9208342262 -0.0914025271 -0.0716413554
He  2.9208342307  0.0914025271  0.0716413554
2
step 23
He -1.9188745508 -0.0949258186 -0.0744029134
He  2.9188745553  0.0949258186  0.0744029134
2
step 24
He -1.9169374028 -0.0984086082 -0.0771327260
He  2.9169374073  0.0984086082  0.0771327260
2
step 25
He -1.9150218768 -0.1018525237 -0.0798320690
He  2.9150218813  0.1018525237  0.0798320690
2
step 26
He -1.9131270889 -0.1052591543 -0.0825021881
He  2.9131270934  0.1052591543  0.0825021881
2
step 27
He -1.9112521766 -0.1086300505 -0.0851442986
He  2.9112521811  0.1086300505  0.0851442986
2
step 28
He -1.9093962992 -0.1119667241 -0.0877595853
He  2.9093963036  0.1119667241  0.0877595853
2
step 29
He -1.9075586373 -0.1152706480 -0.0903492028
He  2.9075586418  0.1152706480  0.0903492028
2
step 30
He -1.9057383931 -0.1185432568 -0.0929142755
He  2.9057383976  0.1185432568  0.0929142755
2
step 31
He -1.9039347897 -0.1217859472 -0.0954558982
He  2.9039347942  0.1217859472  0.0954558982
2
step 32
He -1.9021470708 -0.1250000788 -0.0979751365
He  2.9021470753  0.1250000788  0.0979751365
2
step 33
He -1.9003745005 -0.1281869749 -0.1004730276
He  2.9003745050  0.1281869749  0.1004730276
2
step 34
He -1.8986163624 -0.1313479234 -0.1029505809
He  2.8986163669  0.1313479234  0.1029505809
2
step 35
He -1.8968719594 -0.1344841776 -0.1054087788
He  2.8968719639  0.1344841776  0.1054087788
2
step 36
He -1.8951406127 -0.1375969579 -0.1078485779
He  2.8951406172  0.1375969579  0.1078485779
2
step 37
He -1.8934216615 -0.1406874525 -0.1102709094
He  2.8934216660  0.1406874525  0.1102709094
2
step 38
He -1.8917144618 -0.1437568190 -0.1126766807
He  2.8917144663  0.1437568190  0.1126766807
2
step 39
He -1.8900183862 -0.1468061856 -0.1150667761
He  2.8900183907  0.1468061856  0.1150667761
2
step 40
He -1.8883328227 -0.1498366526 -0.1174420579
He  2.8883328272  0.1498366526  0.1174420579
2
step 41
He -1.8866571740 -0.1528492939 -0.1198033679
He  2.8866571785  0.1528492939  0.1198033679
2
step 42
He -1.8849908566 -0.1558451584 -0.1221515283
He  2.8849908610  0.1558451584  0.1221515283
2
step 43
He -1.8833332999 -0.1588252719 -0.1244873431
He  2.8833333044  0.1588252719  0.1244873431
2
step 44
He -1.8816839455 -0.1617906388 -0.1268115994
He  2.8816839500  0.1617906388  0.1268115994
2
step 45
He -1.8800422457 -0.1647422434 -0.1291250689
He  2.8800422502  0.1647422434  0.1291250689
2
step 46
He -1.8784076629 -0.1676810524 -0.1314285092
He  2.8784076674  0.1676810524  0.1314285092
2
step 47
He -1.8767796682 -0.1706080166 -0.1337226654
He  2.8767796727  0.1706080166  0.1337226654
2
step 48
He -1.8751577406 -0.1735240730 -0.1360082722
He  2.8751577450  0.1735240730  0.1360082722
2
step 49
He -1.8735413650 -0.1764301473 -0.1382860550
He  2.8735413695  0.1764301473  0.1382860550
2
step 50
He -1.8719300317 -0.1793271561 -0.1405567322
He  2.8719300361  0.1793271561  0.1405567322
2
step 51
He -1.8703232342 -0.1822160101 -0.1428210177
He  2.8703232386  0.1822160101  0.1428210177
2
step 52
He -1.8687204678 -0.1850976165 -0.1450796225
He  2.8687204723  0.1850976165  0.1450796225
2
step 53
He -1.8671212278 -0.1879728827 -0.1473332579
He  2.8671212323  0.1879728827  0.1473332579
2
step 54
He -1.8655250074 -0.1908427202 -0.1495826382
He  2.8655250119  0.1908427202  0.1495826382
2
step 55
He -1.8639312952 -0.1937080481 -0.1518284840
He  2.8639312997  0.1937080481  0.1518284840
2
step 56
He -1.8623395727 -0.1965697988 -0.1540715258
He  2.8623395772  0.1965697988  0.1540715258
2
step 57
He -1.8607493114 -0.1994289224 -0.1563125087
He  2.8607493159  0.1994289224  0.1563125087
2
step 58
He -1.8591599690 -0.2022863938 -0.1585521965
He  2.8591599735  0.2022863938  0.1585521965
2
step 59
He -1.8575709860 -0.2051432192 -0.1607913779
He  2.8575709905  0.2051432192  0.1607913779
2
step 60
He -1.8559817807 -0.2080004443 -0.1630308727
He  2.8559817852  0.2080004443  0.1630308727
2
step 61
He -1.8543917439 -0.2108591641 -0.1652715390
He  2.8543917484  0.2108591641  0.1652715390
2
step 62
He -1.8528002335 -0.2137205335 -0.1675142820
He  2.8528002380  0.2137205335  0.1675142820
2
step 63
He -1.8512065668 -0.2165857797 -0.1697600637
He  2.8512065713  0.2165857797  0.1697600637
2
step 64
He -1.8496100128 -0.2194562169 -0.1720099141
He  2.8496100173  0.2194562169  0.1720099141
2
step 65
He -1.8480097832 -0.2223332624 -0.1742649441
He  2.8480097877  0.2223332624  0.1742649441
2
step 66
He -1.8464050218 -0.2252184558 -0.1765263603
He  2.8464050263  0.2252184558  0.1765263603
2
step 67
He -1.8447947924 -0.2281134798 -0.1787954819
He  2.8447947969  0.2281134798  0.1787954819
2
step 68
He -1.8431780662 -0.2310201847 -0.1810737589
He  2.8431780707  0.2310201847  0.1810737589
2
step 69
He -1.8415537063 -0.2339406139 -0.1833627931
He  2.8415537108  0.2339406139  0.1833627931
2
step 70
He -1.8399204524 -0.2368770338 -0.1856643608
He  2.8399204568  0.2368770338  0.1856643608
2
step 71
He -1.8382769025 -0.2398319647 -0.1879804374
He  2.8382769070  0.2398319647  0.1879804374
2
step 72
He -1.8366214955 -0.2428082135 -0.1903132229
He  2.8366215000  0.2428082135  0.1903132229
2
step 73
He -1.8349524915 -0.2458089084 -0.1926651694
He  2.8349524959  0.2458089084  0.1926651694
2
step 74
He -1.8332679527 -0.2488375331 -0.1950390072
He  2.8332679571  0.2488375331  0.1950390072
2
step 75
He -1.8315657251 -0.2518979604 -0.1974377720
He  2.8315657295  0.2518979604  0.1974377720
2
step 76
He -1.8298434207 -0.2549944835 -0.1998648287
He  2.8298434252  0.2549944835  0.1998648287
2
step 77
He -1.8280984025 -0.2581318439 -0.2023238936
He  2.8280984070  0.2581318439  0.2023238936
2
step 78
He -1.8263277717 -0.2613152531 -0.2048190517
He  2.8263277762  0.2613152531  0.2048190517
2
step 79
He -1.8245283594 -0.2645504084 -0.2073547683
He  2.8245283639  0.2645504084  0.2073547683
2
step 80
He -1.8226967234 -0.2678434985 -0.2099358943
He  2.8226967279  0.2678434985  0.2099358943
2
step 81
He -1.8208291505 -0.2712011994 -0.2125676623
He  2.8208291550  0.2712011994  0.2125676623
2
step 82
He -1.8189216665 -0.2746306563 -0.2152556727
He  2.8189216710  0.2746306563  0.2152556727
2
step 83
He -1.8169700537 -0.2781394523 -0.2180058691
He  2.8169700581  0.2781394523  0.2180058691
2
step 84
He -1.8149698779 -0.2817355593 -0.2208244999
He  2.8149698824  0.2817355593  0.2208244999
2
step 85
He -1.8129165256 -0.2854272722 -0.2237180667
He  2.8129165301  0.2854272722  0.2237180667
2
step 86
He -1.8108052506 -0.2892231239 -0.2266932575
He  2.8108052551  0.2892231239  0.2266932575
2
step 87
He -1.8086312323 -0.2931317817 -0.2297568659
He  2.8086312368  0.2931317817  0.2297568659
2
step 88
He -1.8063896429 -0.2971619253 -0.2329156948
He  2.8063896474  0.2971619253  0.2329156948
2
step 89
He -1.8040757239 -0.3013221098 -0.2361764499
He  2.8040757284  0.3013221098  0.2361764499
2
step 90
He -1.8016848694 -0.3056206164 -0.2395456219
He  2.8016848739  0.3056206164  0.2395456219
2
step 91
He -1.7992127122 -0.3100652968 -0.2430293651
He  2.7992127167  0.3100652968  0.2430293651
2
step 92
He -1.7966552109 -0.3146634169 -0.2466333744
He  2.7966552154  0.3146634169  0.2466333744
2
step 93
He -1.7940087325 -0.3194215085 -0.2503627695
He  2.7940087370  0.3194215085  0.2503627695
2
step 94
He -1.7912701274 -0.3243452343 -0.2542219887
He  2.7912701319  0.3243452343  0.2542219887
2
step 95
He -1.7884367921 -0.3294392752 -0.2582147009
He  2.7884367966  0.3294392752  0.2582147009
2
step 96
He -1.7855067173 -0.3347072436 -0.2623437377
He  2.7855067218  0.3347072436  0.2623437377
2
step 97
He -1.7824785191 -0.3401516276 -0.2666110492
He  2.7824785236  0.3401516276  0.2666110492
2
step 98
He -1.7793514527 -0.3457737662 -0.2710176848
He  2.7793514572  0.3457737662  0.2710176848
2
step 99
He -1.7761254091 -0.3515738556 -0.2755637983
He  2.7761254136  0.3515738556  0.2755637983
2
step 100
He -1.7728008963 -0.3575509824 -0.2802486739
He  2.7728009008  0.3575509824  0.2802486739
2
step 101
He -1.7693790079 -0.3637031803 -0.2850707703
He  2.7693790123  0.3637031803  0.2850707703
2
step 102
He -1.7658613817 -0.3700275047 -0.2900277795
He  2.7658613862  0.3700275047  0.2900277795
2
step 103
He -1.7622501524 -0.3765201177 -0.2951166935
He  2.7622501569  0.3765201177  0.2951166935
2
step 104
He -1.7585478999 -0.3831763811 -0.3003338767
He  2.7585479043  0.3831763811  0.3003338767
2
step 105
He -1.7547575974 -0.3899909489 -0.3056751390
He  2.7547576019  0.3899909489  0.3056751390
2
step 106
He -1.7508825617 -0.3969578584 -0.3111358068
He  2.7508825662  0.3969578584  0.3111358068
2
step 107
He -1.7469264050 -0.4040706149 -0.3167107897
He  2.7469264094  0.4040706149  0.3167107897
2
step 108
He -1.7428929923 -0.4113222695 -0.3223946409
He  2.7428929968  0.4113222695  0.3223946409
2
step 109
He -1.7387864033 -0.4187054877 -0.3281816117
He  2.7387864078  0.4187054877  0.3281816117
2
step 110
He -1.7346108982 -0.4262126097 -0.3340656984
He  2.7346109027  0.4262126097  0.3340656984
2
step 111
He -1.7303708894 -0.4338357026 -0.3400406832
He  2.7303708939  0.4338357026  0.3400406832
2
step 112
He -1.7260709167 -0.4415666045 -0.3461001687
He  2.7260709211  0.4415666045  0.3461001687
2
step 113
He -1.7217156260 -0.4493969622 -0.3522376078
He  2.7217156304  0.4493969622  0.3522376078
2
step 114
He -1.7173097517 -0.4573182640 -0.3584463289
He  2.7173097562  0.4573182640  0.3584463289
2
step 115
He -1.7128581009 -0.4653218673 -0.3647195579
He  2.7128581053  0.4653218673  0.3647195579
2
step 116
He -1.7083655393 -0.4733990237 -0.3710504379
He  2.7083655438  0.4733990237  0.3710504379
2
step 117
He -1.7038369791 -0.4815409021 -0.3774320471
He  2.7038369836  0.4815409021  0.3774320471
2
step 118
He -1.6992773663 -0.4897386096 -0.3838574151
He  2.6992773708  0.4897386096  0.3838574151
2
step 119
He -1.6946916698 -0.4979832131 -0.3903195403
He  2.6946916742  0.4979832131  0.3903195403
2
step 120
He -1.6900848690 -0.5062657597 -0.3968114053
He  2.6900848735  0.5062657597  0.3968114053
2
step 121
He -1.6854619428 -0.5145772983 -0.4033259942
He  2.6854619473  0.5145772983  0.4033259942
2
step 122
He -1.6808278563 -0.5229089019 -0.4098563100
He  2.6808278608  0.5229089019  0.4098563100
2
step 123
He -1.6761875485 -0.5312516907 -0.4163953929
He  2.6761875530  0.5312516907  0.4163953929
2
step 124
He -1.6715459186 -0.5395968567 -0.4229363390
He  2.6715459230  0.5395968567  0.4229363390
2
step 125
He -1.6669078115 -0.5479356888 -0.4294723207
He  2.6669078160  0.5479356888  0.4294723207
2
step 126
He -1.6622780037 -0.5562595999 -0.4359966071
He  2.6622780082  0.5562595999  0.4359966071
2
step 127
He -1.6576611872 -0.5645601539 -0.4425025863
He  2.6576611917  0.5645601539  0.4425025863
2
step 128
He -1.6530619542 -0.5728290945 -0.4489837869
He  2.6530619587  0.5728290945  0.4489837869
2
step 129
He -1.6484847810 -0.5810583741 -0.4554339012
He  2.6484847855  0.5810583741  0.4554339012
2
step 130
He -1.6439340113 -0.5892401828 -0.4618468077
He  2.6439340158  0.5892401828  0.4618468077
2
step 131
He -1.6394138405 -0.5973669781 -0.4682165947
He  2.6394138450  0.5973669781  0.4682165947
2
step 132
He -1.6349282989 -0.6054315136 -0.4745375825
He  2.6349283033  0.6054315136  0.4745375825
2
step 133
He -1.6304812364 -0.6134268677 -0.4808043458
He  2.6304812409  0.6134268677  0.4808043458
2
step 134
He -1.6260763071 -0.6213464708 -0.4870117354
He  2.6260763115  0.6213464708  0.4870117354
2
step 135
He -1.6217169546 -0.6291841314 -0.4931548986
He  2.6217169591  0.6291841314  0.4931548986
2
step 136
He -1.6174063987 -0.6369340609 -0.4992292979
He  2.6174064032  0.6369340609  0.4992292979
2
step 137
He -1.6131476229 -0.6445908953 -0.5052307293
He  2.6131476274  0.6445908953  0.5052307293
2
step 138
He -1.6089433633 -0.6521497152 -0.5111553369
He  2.6089433678  0.6521497152  0.5111553369
2
step 139
He -1.6047960991 -0.6596060634 -0.5169996270
He  2.6047961035  0.6596060634  0.5169996270
2
step 140
He -1.6007080450 -0.6669559579 -0.5227604787
He  2.6007080495  0.6669559579  0.5227604787
2
step 141
He -1.5966811454 -0.6741959031 -0.5284351521
He  2.5966811499  0.6741959031  0.5284351521
2
step 142
He -1.5927170703 -0.6813228964 -0.5340212937
He  2.5927170748  0.6813228964  0.5340212937
2
step 143
He -1.5888172141 -0.6883344308 -0.5395169386
He  2.5888172186  0.6883344308  0.5395169386
2
step 144
He -1.5849826958 -0.6952284946 -0.5449205099
He  2.5849827003  0.6952284946  0.5449205099
2
step 145
He -1.5812143620 -0.7020035656 -0.5502308146
He  2.5812143664  0.7020035656  0.5502308146
2
step 146
He -1.5775127918 -0.7086586025 -0.5554470365
He  2.5775127963  0.7086586025  0.5554470365
2
step 147
He -1.5738783045 -0.7151930314 -0.5605687258
He  2.5738783089  0.7151930314  0.5605687258
2
step 148
He -1.5703109683 -0.7216067296 -0.5655957863
He  2.5703109728  0.7216067296  0.5655957863
2
step 149
He -1.5668106122 -0.7279000047 -0.5705284591
He  2.5668106167  0.7279000047  0.5705284591
2
step 150
He -1.5633768385 -0.7340735716 -0.5753673045
He  2.5633768429  0.7340735716  0.5753673045
2
step 151
He -1.5600090376 -0.7401285262 -0.5801131816
He  2.5600090420  0.7401285262  0.5801131816
2
step 152
He -1.5567064038 -0.7460663172 -0.5847672257
He  2.5567064083  0.7460663172  0.5847672257
2
step 153
He -1.5534679520 -0.7518887157 -0.5893308251
He  2.5534679565  0.7518887157  0.5893308251
2
step 154
He -1.5502925353 -0.7575977836 -0.5938055960
He  2.5502925398  0.7575977836  0.5938055960
2
step 155
He -1.5471788627 -0.7631958421 -0.5981933576
He  2.5471788672  0.7631958421  0.5981933576
2
step 156
He -1.5441255174 -0.7686854386 -0.6024961066
He  2.5441255218  0.7686854386  0.6024961066
2
step 157
He -1.5411309742 -0.7740693150 -0.6067159921
He  2.5411309786  0.7740693150  0.6067159921
2
step 158
He -1.5381936175 -0.7793503760 -0.6108552908
He  2.5381936220  0.7793503760  0.6108552908
2
step 159
He -1.5353117578 -0.7845316591 -0.6149163837
He  2.5353117623  0.7845316591  0.6149163837
2
step 160
He -1.5324836478 -0.7896163060 -0.6189017329
He  2.5324836522  0.7896163060  0.6189017329
2
step 161
He -1.5297074974 -0.7946075349 -0.6228138611
He  2.5297075019  0.7946075349  0.6228138611
2
step 162
He -1.5269814877 -0.7995086160 -0.6266553314
He  2.5269814922  0.7995086160  0.6266553314
2
step 163
He -1.5243037839 -0.8043228482 -0.6304287295
He  2.5243037884  0.8043228482  0.6304287295
2
step 164
He -1.5216725465 -0.8090535387 -0.6341366476
He  2.5216725510  0.8090535387  0.6341366476
2
step 165
He -1.5190859420 -0.8137039840 -0.6377816694
He  2.5190859464  0.8137039840  0.6377816694
2
step 166
He -1.5165421515 -0.8182774541 -0.6413663579
He  2.5165421560  0.8182774541  0.6413663579
2
step 167
He -1.5140393791 -0.8227771779 -0.6448932442
He  2.5140393836  0.8227771779  0.6448932442
2
step 168
He -1.5115758581 -0.8272063319 -0.6483648177
He  2.5115758626  0.8272063319  0.6483648177
2
step 169
He -1.5091498569 -0.8315680292 -0.6517835187
He  2.5091498613  0.8315680292  0.6517835187
2
step 170
He -1.5067596832 -0.8358653123 -0.6551517318
He  2.5067596877  0.8358653123  0.6551517318
2
step 171
He -1.5044036881 -0.8401011460 -0.6584717807
He  2.5044036926  0.8401011460  0.6584717807
2
step 172
He -1.5020802684 -0.8442784124 -0.6617459246
He  2.5020802729  0.8442784124  0.6617459246
2
step 173
He -1.4997878689 -0.8483999078 -0.6649763552
He  2.4997878734  0.8483999078  0.6649763552
2
step 174
He -1.4975249836 -0.8524683398 -0.6681651947
He  2.4975249880  0.8524683398  0.6681651947
2
step 175
He -1.4952901562 -0.8564863265 -0.6713144950
He  2.4952901607  0.8564863265  0.6713144950
2
step 176
He -1.4930819809 -0.8604563956 -0.6744262376
He  2.4930819854  0.8604563956  0.6744262376
2
step 177
He -1.4908991015 -0.8643809854 -0.6775023334
He  2.4908991059  0.8643809854  0.6775023334
2
step 178
He -1.4887402110 -0.8682624455 -0.6805446241
He  2.4887402155  0.8682624455  0.6805446241
2
step 179
He -1.4866040511 -0.8721030385 -0.6835548832
He  2.4866040556  0.8721030385  0.6835548832
2
step 180
He -1.4844894103 -0.8759049424 -0.6865348178
He  2.4844894148  0.8759049424  0.6865348178
2
step 181
He -1.4823951230 -0.8796702528 -0.6894860703
He  2.4823951275  0.8796702528  0.6894860703
2
step 182
He -1.4803200679 -0.8834009857 -0.6924102210
He  2.4803200724  0.8834009857  0.6924102210
2
step 183
He -1.4782631662 -0.8870990806 -0.6953087900
He  2.4782631707  0.8870990806  0.6953087900
2
step 184
He -1.4762233802 -0.8907664035 -0.6981832399
He  2.4762233846  0.8907664035  0.6981832399
2
step 185
He -1.4741997108 -0.8944047503 -0.7010349783
He  2.4741997153  0.8944047503  0.7010349783
2
step 186
He -1.4721911964 -0.8980158499 -0.7038653603
He  2.4721912009  0.8980158499  0.7038653603
2
step 187
He -1.4701969109 -0.9016013676 -0.7066756912
He  2.4701969154  0.9016013676  0.7066756912
2
step 188
He -1.4682159614 -0.9051629086 -0.7094672292
He  2.4682159659  0.9051629086  0.7094672292
2
step 189
He -1.4662474868 -0.9087020209 -0.7122411876
He  2.4662474913  0.9087020209  0.7122411876
2
step 190
He -1.4642906560 -0.9122201991 -0.7149987377
He  2.4642906604  0.9122201991  0.7149987377
2
step 191
He -1.4623446658 -0.9157188868 -0.7177410112
He  2.4623446702  0.9157188868  0.7177410112
2
step 192
He -1.4604087395 -0.9191994806 -0.7204691027
He  2.4604087440  0.9191994806  0.7204691027
2
step 193
He -1.4584821252 -0.9226633326 -0.7231840719
He  2.4584821297  0.9226633326  0.7231840719
2
step 194
He -1.4565640939 -0.9261117532 -0.7258869461
He  2.4565640984  0.9261117532  0.7258869461
2
step 195
He -1.4546539381 -0.9295460146 -0.7285787222
He  2.4546539425  0.9295460146  0.7285787222
2
step 196
He -1.4527509701 -0.9329673529 -0.7312603693
He  2.4527509746  0.9329673529  0.7312603693
2
step 197
He -1.4508545209 -0.9363769712 -0.7339328301
He  2.4508545254  0.9363769712  0.7339328301
2
step 198
He -1.4489639382 -0.9397760422 -0.7365970240
He  2.4489639427  0.9397760422  0.7365970240
2
step 199
He -1.4470785854 -0.9431657103 -0.7392538479
He  2.4470785899  0.9431657103  0.7392538479
2
step 200
He -1.4451978400 -0.9465470948 -0.7419041791
He  2.4451978445  0.9465470948  0.7419041791
2
step 201
He -1.4433210924 -0.9499212916 -0.7445488766
He  2.4433210969  0.9499212916  0.7445488766
2
step 202
He -1.4414477446 -0.9532893761 -0.7471887832
He  2.4414477491  0.9532893761  0.7471887832
2
step 203
He -1.4395772087 -0.9566524050 -0.7498247273
He  2.4395772132  0.9566524050  0.7498247273
2
step 204
He -1.4377089059 -0.9600114190 -0.7524575244
He  2.4377089104  0.9600114190  0.7524575244
2
step 205
He -1.4358422652 -0.9633674448 -0.7550879795
He  2.4358422697  0.9633674448  0.7550879795
2
step 206
He -1.4339767220 -0.9667214974 -0.7577168879
He  2.4339767265  0.9667214974  0.7577168879
2
step 207
He -1.4321117171 -0.9700745822 -0.7603450377
He  2.4321117216  0.9700745822  0.7603450377
2
step 208
He -1.4302466953 -0.9734276974 -0.7629732115
He  2.4302466998  0.9734276974  0.7629732115
2
step 209
He -1.4283811041 -0.9767818362 -0.7656021875
He  2.4283811086  0.9767818362  0.7656021875
2
step 210
He -1.4265143927 -0.9801379892 -0.7682327422
He  2.4265143972  0.9801379892  0.7682327422
2
step 211
He -1.4246460104 -0.9834971463 -0.7708656516
He  2.4246460148  0.9834971463  0.7708656516
2
step 212
He -1.4227754051 -0.9868603000 -0.7735016934
He  2.4227754096  0.9868603000  0.7735016934
2
step 213
He -1.4209020225 -0.9902284470 -0.7761416491
He  2.4209020270  0.9902284470  0.7761416491
2
step 214
He -1.4190253041 -0.9936025917 -0.7787863057
He  2.4190253086  0.9936025917  0.7787863057
2
step 215
He -1.4171446855 -0.9969837483 -0.7814364582
He  2.4171446900  0.9969837483  0.7814364582
2
step 216
He -1.4152595953 -1.0003729444 -0.7840929122
He  2.4152595998  1.0003729444  0.7840929122
2
step 217
He -1.4133694528 -1.0037712241 -0.7867564859
He  2.4133694573  1.0037712241  0.7867564859
2
step 218
He -1.4114736662 -1.0071796513 -0.7894280131
He  2.4114736707  1.0071796513  0.7894280131
2
step 219
He -1.4095716305 -1.0105993137 -0.7921083466
He  2.4095716350  1.0105993137  0.7921083466
2
step 220
He -1.4076627251 -1.0140313271 -0.7947983607
He  2.4076627296  1.0140313271  0.7947983607
2
step 221
He -1.4057463114 -1.0174768396 -0.7974989555
He  2.4057463159  1.0174768396  0.7974989555
2
step 222
He -1.4038217298 -1.0209370374 -0.8002110605
He  2.4038217343  1.0209370374  0.8002110605
2
step 223
He -1.4018882963 -1.0244131497 -0.8029356394
He  2.4018883008  1.0244131497  0.8029356394
2
step 224
He -1.3999452997 -1.0279064557 -0.8056736948
He  2.3999453041  1.0279064557  0.8056736948
2
step 225
He -1.3979919966 -1.0314182915 -0.8084262738
He  2.3979920011  1.0314182915  0.8084262738
2
step 226
He -1.3960276079 -1.0349500582 -0.8111944747
He  2.3960276124  1.0349500582  0.8111944747
2
step 227
He -1.3940513131 -1.0385032308 -0.8139794535
He  2.3940513176  1.0385032308  0.8139794535
2
step 228
He -1.3920622448 -1.0420793689 -0.8167824327
He  2.3920622493  1.0420793689  0.8167824327
2
step 229
He -1.3900594821 -1.0456801281 -0.8196047098
He  2.3900594866  1.0456801281  0.8196047098
2
step 230
He -1.3880420433 -1.0493072733 -0.8224476684
He  2.3880420478  1.0493072733  0.8224476684
2
step 231
He -1.3860088774 -1.0529626942 -0.8253127895
He  2.3860088819  1.0529626942  0.8253127895
2
step 232
He -1.3839588545 -1.0566484224 -0.8282016655
He  2.3839588590  1.0566484224  0.8282016655
2
step 233
He -1.3818907546 -1.0603666510 -0.8311160153
He  2.3818907591  1.0603666510  0.8311160153
2
step 234
He -1.3798032554 -1.0641197576 -0.8340577025
He  2.3798032599  1.0641197576  0.8340577025
2
step 235
He -1.3776949178 -1.0679103295 -0.8370287550
He  2.3776949223  1.0679103295  0.8370287550
2
step 236
He -1.3755641698 -1.0717411931 -0.8400313882
He  2.3755641742  1.0717411931  0.8400313882
2
step 237
He -1.3734092878 -1.0756154469 -0.8430680307
He  2.3734092923  1.0756154469  0.8430680307
2
step 238
He -1.3712283764 -1.0795364990 -0.8461413537
He  2.3712283809  1.0795364990  0.8461413537
2
step 239
He -1.3690193444 -1.0835081089 -0.8492543039
He  2.3690193489  1.0835081089  0.8492543039
2
step 240
He -1.3667798794 -1.0875344343 -0.8524101401
He  2.3667798839  1.0875344343  0.8524101401
2
step 241
He -1.3645074187 -1.0916200825 -0.8556124736
He  2.3645074232  1.0916200825  0.8556124736
2
step 242
He -1.3621991183 -1.0957701668 -0.8588653122
He  2.3621991227  1.0957701668  0.8588653122
2
step 243
He -1.3598518191 -1.0999903669 -0.8621731075
He  2.3598518236  1.0999903669  0.8621731075
2
step 244
He -1.3574620121 -1.1042869915 -0.8655408044
He  2.3574620166  1.1042869915  0.8655408044
2
step 245
He -1.3550258024 -1.1086670434 -0.8689738918
He  2.3550258069  1.1086670434  0.8689738918
2
step 246
He -1.3525388741 -1.1131382821 -0.8724784513
He  2.3525388786  1.1131382821  0.8724784513
2
step 247
He -1.3499964582 -1.1177092817 -0.8760612036
He  2.3499964627  1.1177092817  0.8760612036
2
step 248
He -1.3473933061 -1.1223894787 -0.8797295448
He  2.3473933106  1.1223894787  0.8797295448
2
step 249
He -1.3447236720 -1.1271892035 -0.8834915719
He  2.3447236765  1.1271892035  0.8834915719
2
step 250
He -1.3419813087 -1.1321196878 -0.8873560885
He  2.3419813131  1.1321196878  0.8873560885
2
step 251
He -1.3391594816 -1.1371930398 -0.8913325848
He  2.3391594860  1.1371930398  0.8913325848
2
step 252
He -1.3362510063 -1.1424221760 -0.8954311849
He  2.3362510108  1.1424221760  0.8954311849
2
step 253
He -1.3332483153 -1.1478207025 -0.8996625532
He  2.3332483198  1.1478207025  0.8996625532
2
step 254
He -1.3301435578 -1.1534027339 -0.9040377527
He  2.3301435623  1.1534027339  0.9040377527
2
step 255
He -1.3269287374 -1.1591826471 -0.9085680522
He  2.3269287418  1.1591826471  0.9085680522
2
step 256
He -1.3235958871 -1.1651747657 -0.9132646783
He  2.3235958915  1.1651747657  0.9132646783
2
step 257
He -1.3201372811 -1.1713929799 -0.9181385183
He  2.3201372856  1.1713929799  0.9181385183
2
step 258
He -1.3165456757 -1.1778503133 -0.9231997801
He  2.3165456802  1.1778503133  0.9231997801
2
step 259
He -1.3128145687 -1.1845584560 -0.9284576263
He  2.3128145732  1.1845584560  0.9284576263
2
step 260
He -1.3089384646 -1.1915272885 -0.9339198014
He  2.3089384691  1.1915272885  0.9339198014
2
step 261
He -1.3049131256 -1.1987644299 -0.9395922772
He  2.3049131301  1.1987644299  0.9395922772
2
step 262
He -1.3007357927 -1.2062748406 -0.9454789415
He  2.3007357971  1.2062748406  0.9454789415
2
step 263
He -1.2964053590 -1.2140605103 -0.9515813542
He  2.2964053635  1.2140605103  0.9515813542
2
step 264
He -1.2919224830 -1.2221202556 -0.9578985874
He  2.2919224875  1.2221202556  0.9578985874
2
step 265
He -1.2872896334 -1.2304496380 -0.9644271622
He  2.2872896379  1.2304496380  0.9644271622
2
step 266
He -1.2825110656 -1.2390410065 -0.9711610820
He  2.2825110701  1.2390410065  0.9711610820
2
step 267
He -1.2775927339 -1.2478836559 -0.9780919559
He  2.2775927384  1.2478836559  0.9780919559
2
step 268
He -1.2725421495 -1.2569640820 -0.9852091993
He  2.2725421540  1.2569640820  0.9852091993
2
step 269
He -1.2673681963 -1.2662663123 -0.9925002930
He  2.2673682008  1.2662663123  0.9925002930
2
step 270
He -1.2620809203 -1.2757722854 -0.9999510804
He  2.2620809247  1.2757722854  0.9999510804
2
step 271
He -1.2566913044 -1.2854622549 -1.0075460843
He  2.2566913088  1.2854622549  1.0075460843
2
step 272
He -1.2512110423 -1.2953151968 -1.0152688260
He  2.2512110468  1.2953151968  1.0152688260
2
step 273
He -1.2456523199 -1.3053092021 -1.0231021334
He  2.2456523244  1.3053092021  1.0231021334
2
step 274
He -1.2400276113 -1.3154218439 -1.0310284281
He  2.2400276158  1.3154218439  1.0310284281
2
step 275
He -1.2343494937 -1.3256305095 -1.0390299863
He  2.2343494982  1.3256305095  1.0390299863
2
step 276
He -1.2286304835 -1.3359126958 -1.0470891700
He  2.2286304880  1.3359126958  1.0470891700
2
step 277
He -1.2228828936 -1.3462462654 -1.0551886281
He  2.2228828980  1.3462462654  1.0551886281
2
step 278
He -1.2171187108 -1.3566096672 -1.0633114686
He  2.2171187153  1.3566096672  1.0633114686
2
step 279
He -1.2113494931 -1.3669821214 -1.0714414044
He  2.2113494975  1.3669821214  1.0714414044
2
step 280
He -1.2055862830 -1.3773437744 -1.0795628742
He  2.2055862875  1.3773437744  1.0795628742
2
step 281
He -1.1998395374 -1.3876758260 -1.0876611425
He  2.1998395419  1.3876758260  1.0876611425
2
step 282
He -1.1941190701 -1.3979606318 -1.0957223794
He  2.1941190746  1.3979606318  1.0957223794
2
step 283
He -1.1884340074 -1.4081817841 -1.1037337247
He  2.1884340119  1.4081817841  1.1037337247
2
step 284
He -1.1827927535 -1.4183241725 -1.1116833348
He  2.1827927580  1.4183241725  1.1116833348
2
step 285
He -1.1772029673 -1.4283740275 -1.1195604171
He  2.1772029718  1.4283740275  1.1195604171
2
step 286
He -1.1716715471 -1.4383189464 -1.1273552505
He  2.1716715516  1.4383189464  1.1273552505
2
step 287
He -1.1662046251 -1.4481479043 -1.1350591936
He  2.1662046296  1.4481479043  1.1350591936
2
step 288
He -1.1608075693 -1.4578512499 -1.1426646817
He  2.1608075738  1.4578512499  1.1426646817
2
step 289
He -1.1554849937 -1.4674206878 -1.1501652128
He  2.1554849982  1.4674206878  1.1501652128
2
step 290
He -1.1502407758 -1.4768492468 -1.1575553230
He  2.1502407803  1.4768492468  1.1575553230
2
step 291
He -1.1450780806 -1.4861312365 -1.1648305521
He  2.1450780851  1.4861312365  1.1648305521
2
step 292
He -1.1399993913 -1.4952621922 -1.1719874007
He  2.1399993958  1.4952621922  1.1719874007
2
step 293
He -1.1350065456 -1.5042388103 -1.1790232792
He  2.1350065500  1.5042388103  1.1790232792
2
step 294
He -1.1301007763 -1.5130588737 -1.1859364502
He  2.1301007808  1.5130588737  1.1859364502
2
step 295
He -1.1252827571 -1.5217211717 -1.1927259646
He  2.1252827616  1.5217211717  1.1927259646
2
step 296
He -1.1205526499 -1.5302254131 -1.1993915941
He  2.1205526544  1.5302254131  1.1993915941
2
step 297
He -1.1159101552 -1.5385721363 -1.2059337607
He  2.1159101597  1.5385721363  1.2059337607
2
step 298