23
step 0
 C  2.0870572973  1.4484489744 -8.9379338806
 C  3.5782960488  1.4302449831 -8.5492298469
 C  4.1870757628  0.0116707590 -8.6127140928
 C  8.3925006961 -2.8576882968 -7.9598617239
 C  6.2902010798 -1.4246399276 -8.2864368499
 C  7.7850752757 -1.4427080320 -7.8965913446
 C  5.6818159954 -0.0060711121 -8.2228684614
 H  1.5075912429  0.8185238395 -8.2694821908
 H  1.6899110422  2.4577695415 -8.8831635888
 H  1.9492921907  1.0835952624 -9.9515005406
 H  4.1316841177  2.0889808409 -9.2160764016
 H  3.6919530338  1.8253308368 -7.5413387526
 H  3.6332807641 -0.6468374160 -7.9460727967
 H  4.0731664061 -0.3831074156 -9.6206367344
 H  5.7953251118  0.3890818736 -7.2149960017
 H  6.2352033401  0.6527843942 -8.8895908435
 H  6.1771674500 -1.8200818392 -9.2942479241
 H  5.7372643314 -2.0837962983 -7.6196320059
 H  7.8984526512 -1.0475230393 -6.8886566717
 H  8.3383994308 -0.7837810374 -8.5633758408
 H  9.4418722300 -2.8361573812 -7.6808741236
 H  7.8743228422 -3.5294428865 -7.2818094687
 H  8.3160922166 -3.2645966678 -8.9639107756
23
step 1
 C  2.0894690928  1.4492496175 -8.9363032129
 C  3.5775004350  1.4368122127 -8.5430793252
 C  4.1899222346  0.0124986596 -8.6121826529
 C  8.3961315952 -2.8602095943 -7.9571028666
 C  6.2873437650 -1.4214940129 -8.2876014021
 C  7.7824520358 -1.4394407738 -7.8974293108
 C  5.6828914371 -0.0069972051 -8.2236575347
 H  1.5155723279  0.8136235698 -8.2701754928
 H  1.6785881802  2.4627609935 -8.8825271294
 H  1.9525237729  1.0669188722 -9.9551494590
 H  4.1366613735  2.0867490635 -9.2244006749
 H  3.6941517330  1.8196335473 -7.5380946398
 H  3.6454258625 -0.6509376587 -7.9437373779
 H  4.0611723519 -0.3832075138 -9.6247937244
 H  5.7957276217  0.3883216793 -7.2062914413
 H  6.2406624593  0.6479322261 -8.8900434846
 H  6.1792895206 -1.8218127177 -9.2925420351
 H  5.7343398797 -2.0758293917 -7.6324616618
 H  7.8958442105 -1.0298230430 -6.8767250524
 H  8.3428295529 -0.7845677116 -8.5661689884
 H  9.4297109598 -2.8432623781 -7.6848312374
 H  7.8664208399 -3.5302650629 -7.2805768366
 H  8.3183693159 -3.2566534220 -8.9651253200
23
step 2
 C  2.0918214589  1.4500683312 -8.9347532977
 C  3.5767691833  1.4433011183 -8.5370613854
 C  4.1927155150  0.0133357758 -8.6116963088
 C  8.3995367390 -2.8626907511 -7.9543796318
 C  6.2845609402 -1.4183459036 -8.2888150077
 C  7.7798944844 -1.4361557986 -7.8981317161
 C  5.6839732529 -0.0078677759 -8.2243902639
 H  1.5234073364  0.8087448428 -8.2706854719
 H  1.6676712837  2.4668425802 -8.8820408937
 H  1.9559465212  1.0509082710 -9.9577929373
 H  4.1412515618  2.0843363387 -9.2320121412
 H  3.6964209265  1.8144561906 -7.5342795736
 H  3.6573674055 -0.6549755863 -7.9413460576
 H  4.0494808275 -0.3830422513 -9.6283342435
 H  5.7960558512  0.3872711060 -7.1985232950
 H  6.2460877107  0.6432192767 -8.8904473655
 H  6.1813538025 -1.8234424824 -9.2910397958
 H  5.7309631513 -2.0685452703 -7.6444642587
 H  7.8931060832 -1.0129161720 -6.8664431627
 H  8.3470176717 -0.7854314545 -8.5688401972
 H  9.4194434890 -2.8502493995 -7.6881554635
 H  7.8588497597 -3.5309318100 -7.2796460796
 H  8.3206044974 -3.2488733876 -8.9662793434
23
step 3
 C  2.0940655670  1.4509169584 -8.9333464707
 C  3.5761594044  1.4496505090 -8.5312834812
 C  4.1954101241  0.0141934326 -8.6112910272
 C  8.4025121623 -2.8650960193 -7.9517217078
 C  6.2819165832 -1.4151899958 -8.2901243633
 C  7.7774565937 -1.4328358856 -7.8985900022
 C  5.6850687605 -0.0086339646 -8.2250235774
 H  1.5309850919  0.8039133654 -8.2708536323
 H  1.6575039285  2.4692482115 -8.8818340000
 H  1.9597313106  1.0361399444 -9.9586020607
 H  4.1451268635  2.0816130139 -9.2382775931
 H  3.6988292824  1.8102527391 -7.5293826664
 H  3.6689429146 -0.6588893341 -7.9388518239
 H  4.0383621277 -0.3823804374 -9.6307308735
 H  5.7962528143  0.3856944224 -7.1924646406
 H  6.2514582194  0.6387710724 -8.8907581230
 H  6.1833127786 -1.8248752697 -9.2899302976
 H  5.7267114097 -2.0625559437 -7.6549095516
 H  7.8901364624 -0.9974454238 -6.8591223322
 H  8.3507464080 -0.7864369104 -8.5712852625
 H  9.4128193113 -2.8570353329 -7.6902631269
 H  7.8518952329 -3.5313223450 -7.2792731539
 H  8.3227630972 -3.2413945191 -8.9673183041
23
step 4
 C  2.0961608234  1.4517960379 -8.9321236656
 C  3.5757201581  1.4558021721 -8.5258301934
 C  4.1979630745  0.0150842765 -8.6109899133
 C  8.4048970307 -2.8673869066 -7.9491540324
 C  6.2794637574 -1.4120324900 -8.2915643108
 C  7.7751846180 -1.4294749657 -7.8987265748
 C  5.6861833953 -0.0092527857 -8.2255309624
 H  1.5382213237  0.7991803589 -8.2705594452
 H  1.6483631153  2.4694121880 -8.8820115285
 H  1.9640094586  1.0230985518 -9.9569885372
 H  4.1480413693  2.0785361613 -9.2426756943
 H  3.7014247830  1.8073860889 -7.5230515124
 H  3.6800079658 -0.6626032304 -7.9362292877
 H  4.0280677147 -0.3810466923 -9.6315891008
 H  5.7962828336  0.3834331708 -7.1886851414
 H  6.2567474221  0.6347023192 -8.8909301450
 H  6.1851255878 -1.8260146753 -9.2893735901
 H  5.7212784941 -2.0583259529 -7.6632323894
 H  7.8868740987 -0.9839080480 -6.8556896964
 H  8.3538234418 -0.7876300530 -8.5734197235
 H  9.4111521653 -2.8635587488 -7.6906973053
 H  7.8457897704 -3.5313703680 -7.2796439073
 H  8.3248145463 -3.2343439687 -8.9681919074
23
step 5
 C  2.0980773059  1.4526934600 -8.9311006079
 C  3.5754905494  1.4617021138 -8.5207538642
 C  4.2003355301  0.0160231325 -8.6107999170
 C  8.4066004822 -2.8695212334 -7.9466914602
 C  6.2772386923 -1.4088973201 -8.2931522626
 C  7.7731153830 -1.4260801598 -7.8984969932
 C  5.6873202225 -0.0096885969 -8.2259055220
 H  1.5450648837  0.7946276663 -8.2697290922
 H  1.6404366931  2.4670091128 -8.8826529711
 H  1.9688666909  1.0121468732 -9.9526445812
 H  4.1498551070  2.0751656876 -9.2448354423
 H  3.7042235401  1.8061007929 -7.5151638741
 H  3.6904391328 -0.6660256417 -7.9334779185
 H  4.0188166846 -0.3789351982 -9.6306839123
 H  5.7961343192  0.3804193728 -7.1875102826
 H  6.2619218885  0.6311141440 -8.8909172099
 H  6.1867583914 -1.8267646024 -9.2894897695
 H  5.7145421228 -2.0560950487 -7.6691095918
 H  7.8833001283 -0.9726346131 -6.8566578633
 H  8.3560928930 -0.7890319994 -8.5751883261
 H  9.4150295204 -2.8697785752 -7.6892045252
 H  7.8406900712 -3.5310808180 -7.2808533168
 H  8.3267340850 -3.2278365470 -8.9688597038
23
step 6
 C  2.0997975119  1.4535846116 -8.9302664718
 C  3.5754985441  1.4673012281 -8.5160696628
 C  4.2024943092  0.0170276136 -8.6107102770
 C  8.4076155984 -2.8714533292 -7.9443359967
 C  6.2752574469 -1.4058290276 -8.2948855309
 C  7.7712751814 -1.4226729533 -7.8978903037
 C  5.6884795910 -0.0099140739 -8.2261611357
 H  1.5514983010  0.7903670365 -8.2683376857
 H  1.6338088993  2.4619723513 -8.8838122712
 H  1.9743409339  1.0035055923 -9.9455587216
 H  4.1505471753  2.0716686792 -9.2445602272
 H  3.7072030752  1.8065119153 -7.5058623182
 H  3.7001342792 -0.6690500238 -7.9306219039
 H  4.0107843877 -0.3760165470 -9.6279793135
 H  5.7958204599  0.3766807967 -7.1890016923
 H  6.2669413849  0.6280928005 -8.8906742256
 H  6.1881841566 -1.8270308677 -9.2903513500
 H  5.7066020395 -2.0558366606 -7.6724991276
 H  7.8794375972 -0.9637785403 -6.8621187514
 H  8.3574440772 -0.7906351117 -8.5765717944
 H  9.4241634938 -2.8756671120 -7.6857730051
 H  7.8366635180 -3.5305365778 -7.2828959268
 H  8.3285043812 -3.2219730112 -8.9692939538
23
step 7
 C  2.1013175742  1.4544338357 -8.9295844192
 C  3.5757602702  1.4725552312 -8.5117558162
 C  4.2044131705  0.0181185243 -8.6106925729
 C  8.4080147041 -2.8731352214 -7.9420779282
 C  6.2735161795 -1.4028913886 -8.2967424245
 C  7.7696792032 -1.4192899451 -7.8969287870
 C  5.6896589331 -0.0099108341 -8.2263320558
 H  1.5575329020  0.7865332894 -8.2664052907
 H  1.6284530835  2.4544955429 -8.8855187342
 H  1.9804230830  0.9972408097 -9.9360145767
 H  4.1502187233  2.0683140188 -9.2418377288
 H  3.7103019648  1.8086108243 -7.4955421200
 H  3.7090106168 -0.6715592548 -7.9277067617
 H  4.0040938472 -0.3723384462 -9.6236323417
 H  5.7953783558  0.3723398255 -7.1929546294
 H  6.2717602631  0.6257096400 -8.8901600518
 H  6.1893821567 -1.8267237050 -9.2919796143
 H  5.6977762602 -2.0572653642 -7.6736306735
 H  7.8753501020 -0.9573099873 -6.8717467441
 H  8.3578170173 -0.7924016963 -8.5775904084
 H  9.4374502510 -2.8812005362 -7.6806170637
 H  7.8336855967 -3.5298944931 -7.2856679391
 H  8.3301170411 -3.2168377769 -8.9694788607
23
step 8
 C  2.1026478911  1.4551970414 -8.9289937277
 C  3.5762797741  1.4774241430 -8.5077586828
 C  4.2060738042  0.0193200288 -8.6107022975
 C  8.4079283092 -2.8745185406 -7.9399001126
 C  6.2719948899 -1.4001619493 -8.2986867260
 C  7.7683314758 -1.4159832202 -7.8956674341
 C  5.6908527479 -0.0096697049 -8.2264710326
 H  1.5631996097  0.7832721017 -8.2639878954
 H  1.6242316414  2.4450187333 -8.8877785027
 H  1.9870604401  0.9932588361 -9.9245750169
 H  4.1490859432  2.0654583269 -9.2368355080
 H  3.7134260008  1.8122847041 -7.4847954488
 H  3.7170012236 -0.6734328168 -7.9247932471
 H  3.9988105803 -0.3680206622 -9.6179822164
 H  5.7948667589  0.3676062246 -7.1989119202
 H  6.2763300535  0.6240220537 -8.8893411868
 H  6.1903374468 -1.8257612187 -9.2943453925
 H  5.6885561138 -2.0598909018 -7.6729517928
 H  7.8711397483 -0.9530122075 -6.8848075021
 H  8.3572043464 -0.7942653729 -8.5783041165
 H  9.4532107281 -2.8863509848 -7.6741160936
 H  7.8316485968 -3.5293708706 -7.2889806911
 H  8.3315737678 -3.2124961513 -8.9694066524
23
step 9
 C  2.1038128867  1.4558253002 -8.9284135756
 C  3.5770494534  1.4818718766 -8.5040015111
 C  4.2074664107  0.0206594774 -8.6106819431
 C  8.4075163297 -2.8755569322 -7.9377832103
 C  6.2706634167 -1.3977238901 -8.3006741237
 C  7.7672253555 -1.4128199860 -7.8941925190
 C  5.6920528300 -0.0091904827 -8.2266457878
 H  1.5685370763  0.7807240400 -8.2611649807
 H  1.6209046249  2.4341973898 -8.8905766700
 H  1.9941630026  0.9913102974 -9.9120490783
 H  4.1474623037  2.0635230875 -9.2298812058
 H  3.7164592186  1.8173440582 -7.4743259821
 H  3.7240507894 -0.6745559401 -7.9219494194
 H  3.9949416520 -0.3632440311 -9.6115238827
 H  5.7943622409  0.3627628870 -7.2061971325
 H  6.2806029336  0.6230750862 -8.8881959273
 H  6.1910404608 -1.8240736918 -9.2973743350
 H  5.6795337599 -2.0631020547 -7.6710467403
 H  7.8669435805 -0.9504834682 -6.9001798758
 H  8.3556494679 -0.7961349681 -8.5788090661
 H  9.4695121054 -2.8910825294 -7.6667337706
 H  7.8303806625 -3.5292174073 -7.2925845342
 H  8.3328868052 -3.2089916402 -8.9690720941
23
step 10
 C  2.1048494734  1.4562692084 -8.9277488416
 C  3.5780515174  1.4858665247 -8.5003953950
 C  4.2085897204  0.0221667513 -8.6105656264
 C  8.4069406724 -2.8762088559 -7.9357097116
 C  6.2694880302 -1.3956571818 -8.3026588700
 C  7.7663446801 -1.4098807379 -7.8926177954
 C  5.6932488027 -0.0084809459 -8.2269335011
 H  1.5735789734  0.7790070308 -8.2580255080
 H  1.6181495937  2.4228505089 -8.8938803039
 H  2.0016129606  0.9910077848 -9.8994352835
 H  4.1457288388  2.0629621784 -9.2214259180
 H  3.7192771317  1.8235522678 -7.4648529613
 H  3.7301112947 -0.6748295264 -7.9192419244
 H  3.9924399294 -0.3582331096 -9.6048645565
 H  5.7939534250  0.3581430510 -7.2139717668
 H  6.2845355812  0.6229034262 -8.8867184882
 H  6.1914867271 -1.8216084732 -9.3009561919
 H  5.6713214922 -2.0662581799 -7.6685489721
 H  7.8629268492 -0.9491526478 -6.9164081496
 H  8.3532410953 -0.7979006199 -8.5792306236
 H  9.4844650084 -2.8953508116 -7.6589432306
 H  7.8296730909 -3.5296894887 -7.2962010614
 H  8.3340784672 -3.2063440439 -8.9684673127
23
step 11
 C  2.1058038392  1.4564836820 -8.9268983486
 C  3.5792607322  1.4893817133 -8.4968510419
 C  4.2094503390  0.0238730062 -8.6102851750
 C  8.4063443863 -2.8764406288 -7.9336657922
 C  6.2684372527 -1.3940306972 -8.3045993717
 C  7.7656657182 -1.4072549668 -7.8910763296
 C  5.6944289797 -0.0075549315 -8.2274130807
 H  1.5783421417  0.7781996291 -8.2546540552
 H  1.6155951928  2.4118846359 -8.8976425200
 H  2.0092773776  0.9918618878 -9.8878344655
 H  4.1442921844  2.0642195314 -9.2119906601
 H  3.7217595820  1.8306528093 -7.4570216326
 H  3.7351382051 -0.6741795605 -7.9167276158
 H  3.9912141769 -0.3532324294 -9.5986629114
 H  5.7937330347  0.3540980949 -7.2213199802
 H  6.2880928256  0.6235334424 -8.8849225075
 H  6.1916765859 -1.8183350060 -9.3049570069
 H  5.6644791962 -2.0687702914 -7.6660638809
 H  7.8592711746 -0.9483203550 -6.9318077190
 H  8.3501046123 -0.7994416570 -8.5797132149
 H  9.4964382811 -2.8991047747 -7.6511720615
 H  7.8293125574 -3.5310100764 -7.2995601552
 H  8.3351798608 -3.2045489172 -8.9675783541
23
step 12
 C  2.1067264882  1.4564327086 -8.9257656669
 C  3.5806483827  1.4923990302 -8.4932902201
 C  4.2100614176  0.0258087998 -8.6097773262
 C  8.4058383164 -2.8762294104 -7.9316412742
 C  6.2674861997 -1.3928962040 -8.3064621580
 C  7.7651599761 -1.4050335352 -7.8897062989
 C  5.6955815131 -0.0064294909 -8.2281554660
 H  1.5828170093  0.7783272760 -8.2511186215
 H  1.6128688797  2.4021949312 -8.9018072701
 H  2.0170230617  0.9933380188 -9.8783297053
 H  4.1435326558  2.0676786236 -9.2020994025
 H  3.7238014416  1.8383918593 -7.4513308920
 H  3.7390876579 -0.6725648064 -7.9144465709
 H  3.9911446048 -0.3484775268 -9.5935537234
 H  5.7937880142  0.3509571587 -7.2273586293
 H  6.2912504883  0.6249848569 -8.8828433515
 H  6.1916147622 -1.8142494660 -9.3092326914
 H  5.6594587742 -2.0701623587 -7.6641098732
 H  7.8561563060 -0.9472366880 -6.9446433688
 H  8.3463909830 -0.8006357584 -8.5804076071
 H  9.5041846771 -2.9022890770 -7.6437685036
 H  7.8291136843 -3.5333338284 -7.3024367537
 H  8.3362291484 -3.2035786295 -8.9663840926
23
step 13
 C  2.1076660103  1.4560934773 -8.9242717599
 C  3.5821869176  1.4949111140 -8.4896558531
 C  4.2104408200  0.0280017581 -8.6089912860
 C  8.4054938219 -2.8755656739 -7.9296286776
 C  6.2666193703 -1.3922844329 -8.3082242886
 C  7.7647976960 -1.4032976917 -7.8886309063
 C  5.6966956992 -0.0051214784 -8.2292130314
 H  1.5869613782  0.7793533859 -8.2474614228
 H  1.6096549384  2.3945523480 -8.9063138198
 H  2.0247312700  0.9949301268 -9.8718416999
 H  4.1437486066  2.0736087745 -9.1922073765
 H  3.7253204030  1.8465357485 -7.4480824973
 H  3.7419150276 -0.6699818089 -7.9124173943
 H  3.9921018560 -0.3441637563 -9.5900657146
 H  5.7941888053  0.3489832946 -7.2313605577
 H  6.2939968616  0.6272715711 -8.8805386714
 H  6.1913097170 -1.8093784816 -9.3136423014
 H  5.6565670835 -2.0701115798 -7.6630785278
 H  7.8537363318 -0.9452171637 -6.9533778789
 H  8.3422641410 -0.8013689261 -8.5814564602
 H  9.5068997572 -2.9048465355 -7.6369833976
 H  7.8289465091 -3.5367171211 -7.3046812793
 H  8.3372697310 -3.2033848772 -8.9648573994
23
step 14
 C  2.1086626740  1.4554593107 -8.9223675591
 C  3.5838543222  1.4969246354 -8.4859196759
 C  4.2106091349  0.0304741141 -8.6078954855
 C  8.4053396027 -2.8744546576 -7.9276224318
 C  6.2658321679 -1.3922029592 -8.3098745679
 C  7.7645515389 -1.4021063948 -7.8879359613
 C  5.6977632307 -0.0036442618 -8.2306100475
 H  1.5906984426  0.7811766914 -8.2436938856
 H  1.6057533839  2.3894952129 -8.9110994059
 H  2.0323088584  0.9962384773 -9.8689826984
 H  4.1451071484  2.0821167572 -9.1826381153
 H  3.7262618284  1.8548836453 -7.4473518779
 H  3.7435751894 -0.6664665210 -7.9106354667
 H  3.9939657572 -0.3404177494 -9.5885454028
 H  5.7949797470  0.3483343367 -7.2328684733
 H  6.2963324024  0.6304011621 -8.8780867723
 H  6.1907728512 -1.8037814871 -9.3180595449
 H  5.6559446450 -2.0684709560 -7.6632105350
 H  7.8521147254 -0.9417783368 -6.9569486583
 H  8.3378878387 -0.8015458826 -8.5829790631
 H  9.5042423593 -2.9067206028 -7.6309609716
 H  7.8287536301 -3.5410995512 -7.3062380891
 H  8.3383486118 -3.2039021983 -8.9629680694
23
step 15
 C  2.1097433049  1.4545409653 -8.9200435333
 C  3.5856371196  1.4984622557 -8.4820863542
 C  4.2105879617  0.0332405717 -8.6064821877
 C  8.4053611176 -2.8729164004 -7.9256189884
 C  6.2651315048 -1.3926355008 -8.3114139429
 C  7.7643996541 -1.4014854668 -7.8876520805
 C  5.6987791605 -0.0020053938 -8.2323365737
 H  1.5939197295  0.7836358555 -8.2397969441
 H  1.6011261949  2.3872492208 -8.9160988065
 H  2.0396927327  0.9970316347 -9.8699439568
 H  4.1476127155  2.0931141579 -9.1735439047
 H  3.7266009233  1.8632759746 -7.4489790017
 H  3.7440247118 -0.6620921872 -7.9090745071
 H  3.9966393864 -0.3372772295 -9.5891023122
 H  5.7961729409  0.3490380515 -7.2317716580
 H  6.2982674558  0.6343727150 -8.8755825630
 H  6.1900177741 -1.7975513843 -9.3223814807
 H  5.6575563841 -2.0652784358 -7.6645833840
 H  7.8513256929 -0.9367526764 -6.9549899385
 H  8.3334129316 -0.8011004892 -8.5850562665
 H  9.4963381930 -2.9078581748 -7.6257331070
 H  7.8285535510 -3.5463008845 -7.3071484100
 H  8.3395150290 -3.2050518969 -8.9606869212
23
step 16
 C  2.1109187286  1.4533660725 -8.9173333078
 C  3.5875311831  1.4995628365 -8.4781932515
 C  4.2103988196  0.0363069144 -8.6047688234
 C  8.4055018193 -2.8709842154 -7.9236180399
 C  6.2645357040 -1.3935423514 -8.3128553029
 C  7.7643273689 -1.4014225362 -7.8877487947
 C  5.6997423929 -0.0002058728 -8.2343476366
 H  1.5964934075  0.7865218147 -8.2357274565
 H  1.5959177160  2.3876970058 -8.9212407577
 H  2.0468464455  0.9972735638 -9.8744507298
 H  4.1511021056  2.1063094198 -9.1648997951
 H  3.7263424194  1.8715986221 -7.4525783223
 H  3.7432260383 -0.6569634313 -7.9076914712
 H  4.0000548906 -0.3346838958 -9.5915885709
 H  5.7977473697  0.3509886280 -7.2283236852
 H  6.2998181460  0.6391729847 -8.8731312114
 H  6.1890598822 -1.7908133009 -9.3265338929
 H  5.6611920474 -2.0607552929 -7.6671083327
 H  7.8513289018 -0.9303370959 -6.9479136569
 H  8.3289661405 -0.8000055314 -8.5877169543
 H  9.4837764357 -2.9082129650 -7.6212144782
 H  7.8284296793 -3.5520345634 -7.3075375106
 H  8.3408193227 -3.2067458677 -8.9579905887
23
step 17
 C  2.1121842719  1.4519766999 -8.9143098100
 C  3.5895402013  1.5002796833 -8.4743056661
 C  4.2100628007  0.0396696035 -8.6027956170
 C  8.4056662431 -2.8687017677 -7.9216244975
 C  6.2640736758 -1.3948619330 -8.3142226687
 C  7.7643271818 -1.4018697133 -7.8881434260
 C  5.7006556469  0.0017588849 -8.2365681103
 H  1.5982779012  0.7895974644 -8.2314308727
 H  1.5904423842  2.3904059468 -8.9264427822
 H  2.0537507076  0.9971075810 -9.8818008674
 H  4.1552678721  2.1212282700 -9.1565320406
 H  3.7255177139  1.8797822168 -7.4575682425
 H  3.7411534399 -0.6512068678 -7.9064344069
 H  4.0041699556 -0.3324911993 -9.5956184291
 H  5.7996536055  0.3539655929 -7.2230958612
 H  6.3010009502  0.6447713590 -8.8708401029
 H  6.1879163726 -1.7837213434 -9.3304732852
 H  5.6664764942 -2.0552936236 -7.6705369279
 H  7.8520196579 -0.9230534467 -6.9368134925
 H  8.3246415236 -0.7982807058 -8.5909279587
 H  9.4675962898 -2.9077493102 -7.6171992674
 H  7.8285075780 -3.5579356626 -7.3075891845
 H  8.3423119733 -3.2088900805 -8.9548666499
23
step 18
 C  2.1135228268  1.4504252238 -8.9110747284
 C  3.5916723627  1.5006772385 -8.4705081265
 C  4.2096008231  0.0433163470 -8.6006199475
 C  8.4057258451 -2.8661192100 -7.9196504257
 C  6.2637831207 -1.3965137195 -8.3155495362
 C  7.7643973470 -1.4027525893 -7.8887209798
 C  5.7015249645  0.0038967957 -8.2389020428
 H  1.5991398666  0.7926230188 -8.2268591159
 H  1.5851427363  2.3947059373 -8.9316069942
 H  2.0603916787  0.9968044839 -9.8909758285
 H  4.1597041721  2.1372591542 -9.1481720013
 H  3.7241792807  1.8877951150 -7.4632212505
 H  3.7378001543 -0.6449590207 -7.9052524228
 H  4.0089568089 -0.3304851312 -9.6006232753
 H  5.8018228179  0.3576696484 -7.2168803876
 H  6.3018268185  0.6511145559 -8.8688101650
 H  6.1866066340 -1.7764533947 -9.3341857642
 H  5.6728925961 -2.0494301427 -7.6744801434
 H  7.8532500177 -0.9156390139 -6.9232340468
 H  8.3204960088 -0.7959971720 -8.5945896648
 H  9.4492479340 -2.9064456440 -7.6133638557
 H  7.8289252823 -3.5635986779 -7.3075128038
 H  8.3440427514 -3.2113877946 -8.9513188243
23
step 19
 C  2.1149093105  1.4487689915 -8.9077440267
 C  3.5939362667  1.5008271026 -8.4668929635
 C  4.2090341698  0.0472274014 -8.5983086398
 C  8.4055292462 -2.8632890281 -7.9177158300
 C  6.2637074002 -1.3984029069 -8.3168759926
 C  7.7645396850 -1.4039819360 -7.8893573382
 C  5.7023589155  0.0062163260 -8.2412441035
 H  1.5989744505  0.7953838605 -8.2219911764
 H  1.5805289520  2.3997959882 -8.9366191070
 H  2.0667509726  0.9966932410 -9.9007917138
 H  4.1639640352  2.1537145583 -9.1395208613
 H  3.7223923892  1.8956286729 -7.4687345639
 H  3.7331857994 -0.6383528963 -7.9041064449
 H  4.0143876477 -0.3284132227 -9.6059295993
 H  5.8041778042  0.3617660785 -7.2105693240
 H  6.3022959141  0.6581222640 -8.8671279019
 H  6.1851528420 -1.7692042241 -9.3376833063
 H  5.6798207054 -2.0438021562 -7.6784448354
 H  7.8548529237 -0.9089109731 -6.9088940857
 H  8.3165500510 -0.7932770467 -8.5985391189
 H  9.4305025992 -2.9042961537 -7.6092834998
 H  7.8298021354 -3.5686193784 -7.3075087228
 H  8.3460599104 -3.2141426994 -8.9473719766
23
step 20
 C  2.1163153000  1.4470645461 -8.9044328952
 C  3.5963370571  1.5008043167 -8.4635477242
 C  4.2083849980  0.0513772763 -8.5959296907
 C  8.4049187053 -2.8602622893 -7.9158471645
 C  6.2638908224 -1.4004270508 -8.3182442708
 C  7.7647572133 -1.4054646527 -7.8899389042
 C  5.7031676492  0.0087238572 -8.2434907747
 H  1.5977247276  0.7977164701 -8.2168526304
 H  1.5771141341  2.4048553196 -8.9413514636
 H  2.0727996639  0.9970936979 -9.9100532477
 H  4.1676163603  2.1698969879 -9.1303108561
 H  3.7202248270  1.9032745536 -7.4733171738
 H  3.7273629259 -0.6315050368 -7.9029790827
 H  4.0204206585 -0.3260159302 -9.6108441806
 H  5.8066437913  0.3659265939 -7.2050357604
 H  6.3023940417  0.6656849079 -8.8658594386
 H  6.1835806023 -1.7621773925 -9.3409980084
 H  5.6865973496 -2.0390829752 -7.6818912440
 H  7.8566628118 -0.9036460052 -6.8954438514
 H  8.3127936864 -0.7902868822 -8.6025611500
 H  9.4132853836 -2.9013087685 -7.6044727986
 H  7.8312108657 -3.5726351612 -7.3077369426
 H  8.3484093219 -3.2170620729 -8.9430765227
23
step 21
 C  2.1177130496  1.4453623236 -8.9012428624
 C  3.5988733943  1.5006844796 -8.4605431171
 C  4.2076766299  0.0557365527 -8.5935447735
 C  8.4037533750 -2.8570858550 -7.9140728679
 C  6.2643724824 -1.4024844150 -8.3196927715
 C  7.7650519469 -1.4071121585 -7.8903755168
 C  5.7039618966  0.0114215856 -8.2455496401
 H  1.5953967550  0.7995277423 -8.2115297691
 H  1.5753569310  2.4091402563 -8.9456693684
 H  2.0784965490  0.9982639380 -9.9176837946
 H  4.1702940213  2.1851600113 -9.1203534589
 H  3.7177362628  1.9106963467 -7.4762833815
 H  3.7204215796 -0.6245050653 -7.9018818528
 H  4.0269895857 -0.3230554737 -9.6147328552
 H  5.8091575143  0.3698636243 -7.2010351311
 H  6.3020915800  0.6736643647 -8.8650474947
 H  6.1819195748 -1.7555765722 -9.3441749225
 H  5.6925911364 -2.0358990161 -7.6843105133
 H  7.8585298727 -0.9004955967 -6.8842948144
 H  8.3091971639 -0.7872253377 -8.6064063252
 H  9.3994210433 -2.8974983702 -7.5984564605
 H  7.8331562160 -3.5753594701 -7.3082923861
 H  8.3511334243 -3.2200597772 -8.9385114990
23
step 22
 C  2.1190786531  1.4437026042 -8.8982524951
 C  3.6015354093  1.5005416901 -8.4579231393
 C  4.2069335973  0.0602736429 -8.5912033959
 C  8.4019365977 -2.8538007818 -7.9124163718
 C  6.2651794359 -1.4044830460 -8.3212492745
 C  7.7654230142 -1.4088460627 -7.8906068800
 C  5.7047519772  0.0143060192 -8.2473460853
 H  1.5920671596  0.8008040204 -8.2061746474
 H  1.5756177023  2.4120577116 -8.9494391536
 H  2.0837896011  1.0003661787 -9.9228200866
 H  4.1717289647  2.1989585111 -9.1095708655
 H  3.7149696455  1.9178010139 -7.4771376261
 H  3.7124909624 -0.6174094769 -7.9008583079
 H  4.0339980561 -0.3193391335 -9.6170843283
 H  5.8116740071  0.3733548529 -7.1991337494
 H  6.3013452939  0.6818979007 -8.8647116138
 H  6.1802040800 -1.7495968904 -9.3472639719
 H  5.6972863453 -2.0347388855 -7.6853128433
 H  7.8603283284 -0.8999374004 -6.8765212496
 H  8.3057244206 -0.7843064286 -8.6098132635
 H  9.3903232898 -2.8928765802 -7.5908651848
 H  7.8355621005 -3.5766072402 -7.3091886324
 H  8.3542699135 -3.2230586275 -8.9337850758
23
step 23
 C  2.1203944802  1.4421131445 -8.8955119071
 C  3.6043034579  1.5004468090 -8.4556987796
 C  4.2061815109  0.0649564302 -8.5889390647
 C  8.3994402142 -2.8504417193 -7.9108886441
 C  6.2663206258 -1.4063489101 -8.3229248325
 C  7.7658651402 -1.4106017887 -7.8906044653
 C  5.7055468384  0.0173669371 -8.2488274816
 H  1.5878815337  0.8016083057 -8.2009990877
 H  1.5781293494  2.4132142865 -8.9525364119
 H  2.0886192300  1.0034489373 -9.9248728770
 H  4.1717739553  2.2108860976 -9.0980115341
 H  3.7119470233  1.9244179810 -7.4756337848
 H  3.7037376724 -0.6102407264 -7.8999822528
 H  4.0413184577 -0.3147359512 -9.6175558303
 H  5.8141712117  0.3762585499 -7.1996635127
 H  6.3001029037  0.6902050301 -8.8648513558
 H  6.1784736899 -1.7444167612 -9.3503113245
 H  5.7003572467 -2.0358728044 -7.6847078816
 H  7.8619605694 -0.9022525698 -6.8728132026
 H  8.3023472523 -0.7817404737 -8.6125323579
 H  9.3867096413 -2.8874427988 -7.5815333113
 H  7.8382683743 -3.5763095084 -7.3103509720
 H  8.3578502469 -3.2259915188 -8.9290309350
23
step 24
 C  2.1216511174  1.4406085188 -8.8930405358
 C  3.6071474320  1.5004653834 -8.4538461328
 C  4.2054468519  0.0697537929 -8.5867674118
 C  8.3963168328 -2.8470368819 -7.9094833873
 C  6.2677832092 -1.4080312296 -8.3247102032
 C  7.7663675290 -1.4123309781 -7.8903710540
 C  5.7063531606  0.0205866518 -8.2499652865
 H  1.5830437212  0.8020665867 -8.1962579538
 H  1.5829810070  2.4124444768 -8.9548533328
 H  2.0929222569  1.0074409143 -9.9235607467
 H  4.1704126211  2.2207000687 -9.0858525245
 H  3.7086711002  1.9302933058 -7.4717963345
 H  3.6943604381 -0.6029917148 -7.8993510546
 H  4.0487944951 -0.3091870131 -9.6160009730
 H  5.8166528083  0.3785214295 -7.2026981958
 H  6.2983098422  0.6983965737 -8.8654517004
 H  6.1767737496 -1.7401904919 -9.3533505934
 H  5.7017137275 -2.0393035427 -7.6825549496
 H  7.8633591245 -0.9075174771 -6.8734576924
 H  8.2990581852 -0.7797149759 -8.6143482491
 H  9.3884481234 -2.8811824881 -7.5705620718
 H  7.8410377368 -3.5745160563 -7.3116192115
 H  8.3618981346 -3.2288008094 -8.9243991353
23
step 25
 C  2.1228489201  1.4391909088 -8.8908274077
 C  3.6100265484  1.5006548562 -8.4523089560
 C  4.2047567377  0.0746370165 -8.5846860499
 C  8.3926943965 -2.8436083441 -7.9081772772
 C  6.2695324387 -1.4095037470 -8.3265761894
 C  7.7669131681 -1.4140032512 -7.8899394829
 C  5.7071745795  0.0239395130 -8.2507554919
 H  1.5777977000  0.8023462199 -8.1922240733
 H  1.5901122446  2.4098220744 -8.9563046132
 H  2.0966359629  1.0121526916 -9.9189243176
 H  4.1677596449  2.2283348834 -9.0733913057
 H  3.7051320572  1.9351026903 -7.4658999989
 H  3.6845816683 -0.5956348429 -7.8990748530
 H  4.0562465045 -0.3027098444 -9.6124813292
 H  5.8191496055  0.3801805642 -7.2080472784
 H  6.2959173111  0.7062849878 -8.8664896865
 H  6.1751557085 -1.7370418509 -9.3563944602
 H  5.7015049155 -2.0447635951 -7.6791665046
 H  7.8644878768 -0.9156016345 -6.8783315636
 H  8.2958805647 -0.7783773288 -8.6150990535
 H  9.3946025576 -2.8740754816 -7.5583197458
 H  7.8435726476 -3.5713854096 -7.3127605198
 H  8.3664281391 -3.2314358859 -8.9200412247
23
step 26
 C  2.1239990831  1.4378519863 -8.8888332963
 C  3.6128897601  1.5010612469 -8.4510049047
 C  4.2041386605  0.0795810389 -8.5826759321
 C  8.3887549540 -2.8401728383 -7.9069351321
 C  6.2715151554 -1.4107618763 -8.3284780025
 C  7.7674785659 -1.4156074895 -7.8893712641
 C  5.7080111051  0.0273917369 -8.2512176094
 H  1.5724047771  0.8026302335 -8.1891584414
 H  1.5993165455  2.4056567492 -8.9568317129
 H  2.0997018962  1.0172844677 -9.9113243380
 H  4.1640519886  2.2339041166 -9.0610285035
 H  3.7013175321  1.9384815826 -7.4584148826
 H  3.6746364888 -0.5881341254 -7.8992630853
 H  4.0634788764 -0.2953971232 -9.6072625263
 H  5.8217195336  0.3813598768 -7.2152662341
 H  6.2928905837  0.7136949738 -8.8679413043
 H  6.1736770914 -1.7350588175 -9.3594277099
 H  5.7000805612 -2.0517592023 -7.6750628675
 H  7.8653431167 -0.9261688595 -6.8868994815
 H  8.2928749931 -0.7778207415 -8.6146909913
 H  9.4036547542 -2.8661110421 -7.5453778671
 H  7.8455412028 -3.5671620824 -7.3134923040
 H  8.3714443156 -3.2338494481 -8.9160912182
23
step 27
 C  2.1251239505  1.4365756043 -8.8869946076
 C  3.6156770880  1.5017160457 -8.4498342149
 C  4.2036201568  0.0845653847 -8.5807041076
 C  8.3847057439 -2.8367434568 -7.9057174788
 C  6.2736658381 -1.4118169188 -8.3303624069
 C  7.7680339343 -1.4171523400 -7.8887548047
 C  5.7088588371  0.0309017724 -8.2513920633
 H  1.5671190834  0.8030913016 -8.1872796253
 H  1.6102545235  2.4004746097 -8.9564052607
 H  2.1020692531  1.0224404742 -9.9014217804
 H  4.1596307624  2.2376891569 -9.0492417093
 H  3.6972229449  1.9400658880 -7.4499310906
 H  3.6647602307 -0.5804585527 -7.9000100575
 H  4.0702891768 -0.2874093646 -9.6007940944
 H  5.8244458823  0.3822605031 -7.2236857875
 H  6.2892165116  0.7204734042 -8.8697877841
 H  6.1724009299 -1.7342898399 -9.3624029880
 H  5.6979229988 -2.0596474196 -7.6708919916
 H  7.8659540733 -0.9386842259 -6.8982215550
 H  8.2901417704 -0.7780743683 -8.6131074943
 H  9.4138100428 -2.8573026295 -7.5324105614
 H  7.8466097691 -3.5621421232 -7.3135142312
 H  8.3769387301 -3.2359936162 -8.9126458552
23
step 28
 C  2.1262562089  1.4353411429 -8.8852292911
 C  3.6183221622  1.5026343351 -8.4486895691
 C  4.2032283605  0.0895745695 -8.5787278833
 C  8.3807514628 -2.8333324150 -7.9044873778
 C  6.2759136081 -1.4126891100 -8.3321757043
 C  7.7685438823 -1.4186652021 -7.8882020305
 C  5.7097100923  0.0344214666 -8.2513356266
 H  1.5621640672  0.8038683374 -8.1867358311
 H  1.6224785784  2.3949788308 -8.9550253455
 H  2.1036976628  1.0271526320 -9.8901333274
 H  4.1549125941  2.2401116622 -9.0385497016
 H  3.6928597767  1.9395348904 -7.4410781571
 H  3.6551755481 -0.5725949216 -7.9013813281
 H  4.0764786215 -0.2789608889 -9.5936712161
 H  5.8274330683  0.3831434583 -7.2324650073