23
step 0
 C  2.0870572973  1.4484489744 -8.9379338806
 C  3.5782960488  1.4302449831 -8.5492298469
 C  4.1870757628  0.0116707590 -8.6127140928
 C  8.3925006961 -2.8576882968 -7.9598617239
 C  6.2902010798 -1.4246399276 -8.2864368499
 C  7.7850752757 -1.4427080320 -7.8965913446
 C  5.6818159954 -0.0060711121 -8.2228684614
 H  1.5075912429  0.8185238395 -8.2694821908
 H  1.6899110422  2.4577695415 -8.8831635888
 H  1.9492921907  1.0835952624 -9.9515005406
 H  4.1316841177  2.0889808409 -9.2160764016
 H  3.6919530338  1.8253308368 -7.5413387526
 H  3.6332807641 -0.6468374160 -7.9460727967
 H  4.0731664061 -0.3831074156 -9.6206367344
 H  5.7953251118  0.3890818736 -7.2149960017
 H  6.2352033401  0.6527843942 -8.8895908435
 H  6.1771674500 -1.8200818392 -9.2942479241
 H  5.7372643314 -2.0837962983 -7.6196320059
 H  7.8984526512 -1.0475230393 -6.8886566717
 H  8.3383994308 -0.7837810374 -8.5633758408
 H  9.4418722300 -2.8361573812 -7.6808741236
 H  7.8743228422 -3.5294428865 -7.2818094687
 H  8.3160922166 -3.2645966678 -8.9639107756
23
step 1
 C  2.0894696997  1.4492498189 -8.9363028026
 C  3.5775002348  1.4368138653 -8.5430777775
 C  4.1899229510  0.0124988679 -8.6121825192
 C  8.3961325089 -2.8602102288 -7.9571021723
 C  6.2873430459 -1.4214932213 -8.2876016951
 C  7.7824513757 -1.4394399517 -7.8974295216
 C  5.6828917077 -0.0069974381 -8.2236577333
 H  1.5155743363  0.8136223367 -8.2701756673
 H  1.6785853309  2.4627622495 -8.8825269693
 H  1.9525245862  1.0669146757 -9.9551503773
 H  4.1366626260  2.0867485019 -9.2244027697
 H  3.6941522863  1.8196321136 -7.5380938234
 H  3.6454289187 -0.6509386905 -7.9437367902
 H  4.0611693336 -0.3832075390 -9.6247947705
 H  5.7957277230  0.3883214880 -7.2062892508
 H  6.2406638330  0.6479310051 -8.8900435985
 H  6.1792900546 -1.8218131533 -9.2925416058
 H  5.7343391438 -2.0758273869 -7.6324648904
 H  7.8958435541 -1.0298185889 -6.8767220498
 H  8.3428306677 -0.7845679096 -8.5661696913
 H  9.4297078995 -2.8432641661 -7.6848322332
 H  7.8664188514 -3.5302652698 -7.2805765264
 H  8.3183698889 -3.2566514232 -8.9651256256
23
step 2
 C  2.0918226578  1.4500687384 -8.9347524968
 C  3.5767687988  1.4433044038 -8.5370583236
 C  4.1927169341  0.0133361946 -8.6116960525
 C  8.3995385079 -2.8626920100 -7.9543782528
 C  6.2845595213 -1.4183443193 -8.2888156064
 C  7.7798931804 -1.4361541501 -7.8981321052
 C  5.6839737957 -0.0078682283 -8.2243906473
 H  1.5234113167  0.8087423823 -8.2706857752
 H  1.6676656877  2.4668448672 -8.8820406098
 H  1.9559481945  1.0509000460 -9.9577945272
 H  4.1412539697  2.0843351715 -9.2320161508
 H  3.6964220516  1.8144534531 -7.5342777941
 H  3.6573734673 -0.6549776338 -7.9413448687
 H  4.0494748686 -0.3830422354 -9.6283361815
 H  5.7960560360  0.3872706531 -7.1985191437
 H  6.2460904505  0.6432168706 -8.8904475821
 H  6.1813548563 -1.8234433284 -9.2910389896
 H  5.7309615607 -2.0685414376 -7.6444705036
 H  7.8931047400 -1.0129074583 -6.8664375543
 H  8.3470198407 -0.7854318687 -8.5688415725
 H  9.4194378655 -2.8502529472 -7.6881572910
 H  7.8588458664 -3.5309321853 -7.2796455342
 H  8.3206056328 -3.2488694309 -8.9662799397
23
step 3
 C  2.0940673308  1.4509175773 -8.9333453136
 C  3.5761588657  1.4496553929 -8.5312789670
 C  4.1954122208  0.0141940664 -8.6112906683
 C  8.4025146721 -2.8650978838 -7.9517196625
 C  6.2819145004 -1.4151876161 -8.2901252924
 C  7.7774546752 -1.4328334028 -7.8985905128
 C  5.6850695786 -0.0086346103 -8.2250241219
 H  1.5309909798  0.8039096913 -8.2708539802
 H  1.6574957769  2.4692511216 -8.8818336576
 H  1.9597339305  1.0361280059 -9.9586038824
 H  4.1451302478  2.0816111689 -9.2382831771
 H  3.6988310166  1.8102489386 -7.5293796411
 H  3.6689518915 -0.6588923645 -7.9388500111
 H  4.0383533771 -0.3823802579 -9.6307334180
 H  5.7962530524  0.3856935834 -7.1924589423
 H  6.2514623115  0.6387675484 -8.8907584193
 H  6.1833143273 -1.8248764763 -9.2899292142
 H  5.7267087287 -2.0625506239 -7.6549184102
 H  7.8901343812 -0.9974327968 -6.8591148054
 H  8.3507495147 -0.7864375751 -8.5712872519
 H  9.4128121144 -2.8570405956 -7.6902654636
 H  7.8518895933 -3.5313228187 -7.2792725126
 H  8.3227647757 -3.2413886785 -8.9673191592
23
step 4
 C  2.0961631147  1.4517968736 -8.9321221959
 C  3.5757195073  1.4558086057 -8.5258243105
 C  4.1979658124  0.0150851323 -8.6109894771
 C  8.4049001226 -2.8673893493 -7.9491513472
 C  6.2794610612 -1.4120293132 -8.2915656043
 C  7.7751821253 -1.4294716387 -7.8987271337
 C  5.6861844935 -0.0092535875 -8.2255316385
 H  1.5382290342  0.7991754996 -8.2705597253
 H  1.6483526730  2.4694151807 -8.8820112145
 H  1.9640131404  1.0230833407 -9.9569900179
 H  4.1480454887  2.0785335597 -9.2426823784
 H  3.7014271770  1.8073815513 -7.5230468643
 H  3.6800197329 -0.6626071901 -7.9362268254
 H  4.0280563898 -0.3810461843 -9.6315918671
 H  5.7962830878  0.3834317862 -7.1886784434
 H  6.2567528454  0.6346977724 -8.8909304861
 H  6.1851275975 -1.8260161677 -9.2893723682
 H  5.7212743990 -2.0583196130 -7.6632433128
 H  7.8868712178 -0.9838919700 -6.8556811332
 H  8.3538273202 -0.7876310133 -8.5734222456
 H  9.4111447643 -2.8635656737 -7.6906997040
 H  7.8457826052 -3.5313708521 -7.2796433561
 H  8.3248167411 -3.2343363481 -8.9681929726
23
step 5
 C  2.0980800794  1.4526945135 -8.9310988727
 C  3.5754898378  1.4617100366 -8.5207467101
 C  4.2003388624  0.0160242198 -8.6107994307
 C  8.4066039747 -2.8695242170 -7.9466881656
 C  6.2772354422 -1.4088933515 -8.2931539584
 C  7.7731123652 -1.4260759797 -7.8984975172
 C  5.6873216062 -0.0096895080 -8.2259062989
 H  1.5450743190  0.7946216733 -8.2697291752
 H  1.6404242791  2.4670115680 -8.8826527875
 H  1.9688715685  1.0121289295 -9.9526450762
 H  4.1498596829  2.0751622673 -9.2448426543
 H  3.7042266490  1.8060958968 -7.5151571958
 H  3.6904535356 -0.6660304521 -7.9334747856
 H  4.0188030628 -0.3789341710 -9.6306864554
 H  5.7961345505  0.3804172686 -7.1875032113
 H  6.2619286122  0.6311086944 -8.8909175484
 H  6.1867608215 -1.8267662805 -9.2894885769
 H  5.7145362552 -2.0560882166 -7.6691219536
 H  7.8832963838 -0.9726156284 -6.8566492573
 H  8.3560973364 -0.7890333053 -8.5751912832
 H  9.4150234349 -2.8697871076 -7.6892064778
 H  7.8406816441 -3.5310812230 -7.2808530668
 H  8.3267367631 -3.2278272768 -8.9688609157
23
step 6
 C  2.0998007171  1.4535858776 -8.9302645167
 C  3.5754978304  1.4673105689 -8.5160613388
 C  4.2024981808  0.0170289447 -8.6107097654
 C  8.4076193144 -2.8714568064 -7.9443321224
 C  6.2752537059 -1.4058242855 -8.2948876653
 C  7.7712716938 -1.4226679143 -7.8978907051
 C  5.6884812659 -0.0099150396 -8.2261619850
 H  1.5515093580  0.7903599921 -8.2683374369
 H  1.6337948638  2.4619736226 -8.8838123300
 H  1.9743471494  1.0034855242 -9.9455575724
 H  4.1505519191  2.0716644168 -9.2445673389
 H  3.7072069469  1.8065070589 -7.5058532477
 H  3.7001511384 -0.6690555775 -7.9306180898
 H  4.0107687949 -0.3760148009 -9.6279811698
 H  5.7958206326  0.3766778040 -7.1889948974
 H  6.2669493670  0.6280865895 -8.8906745020
 H  6.1881869611 -1.8270326065 -9.2903503713
 H  5.7065940748 -2.0558298456 -7.6725123052
 H  7.8794329298 -0.9637572426 -6.8621111370
 H  8.3574488499 -0.7906368103 -8.5765750815
 H  9.4241601054 -2.8756771959 -7.6857740198
 H  7.8366541122 -3.5305368320 -7.2828961898
 H  8.3285075055 -3.2219622456 -8.9692952387
23
step 7
 C  2.1013211586  1.4544353004 -8.9295822829
 C  3.5757596175  1.4725659103 -8.5117464176
 C  4.2044175195  0.0181201155 -8.6106920546
 C  8.4080184945 -2.8731391347 -7.9420734999
 C  6.2735120077 -1.4028859102 -8.2967450266
 C  7.7696753049 -1.4192840472 -7.8969289790
 C  5.6896609045 -0.0099117932 -8.2263329564
 H  1.5575454788  0.7865253123 -8.2664045802
 H  1.6284377817  2.4544950102 -8.8855191534
 H  1.9804307781  0.9972192587 -9.9360111675
 H  4.1502233652  2.0683089499 -9.2418441007
 H  3.7103066282  1.8086063967 -7.4955304101
 H  3.7090297319 -0.6715654138 -7.9277022705
 H  4.0040766426 -0.3723357897 -9.6236330725
 H  5.7953784417  0.3723357994 -7.1929487279
 H  6.2717694493  0.6257028267 -8.8901601955
 H  6.1893852848 -1.8267253563 -9.2919790378
 H  5.6977659722 -2.0572589825 -7.6736441223
 H  7.8753444629 -0.9572869864 -6.8717411293
 H  8.3578218679 -0.7924038253 -8.5775939234
 H  9.4374505543 -2.8812121104 -7.6806167311
 H  7.8336754897 -3.5298945611 -7.2856689037
 H  8.3301205727 -3.2168256903 -8.9694801387
23
step 8
 C  2.1026518036  1.4551986809 -8.9289914373
 C  3.5762792471  1.4774360725 -8.5077482910
 C  4.2060785645  0.0193219007 -8.6107017809
 C  8.4079320677 -2.8745228227 -7.9398951494
 C  6.2719903409 -1.4001557940 -8.2986898148
 C  7.7683272271 -1.4159764723 -7.8956673361
 C  5.6908550200 -0.0096705922 -8.2264719745
 H  1.5632136098  0.7832633493 -8.2639866056
 H  1.6242154049  2.4450158553 -8.8877794020
 H  1.9870697475  0.9932364374 -9.9245688314
 H  4.1490902607  2.0654525642 -9.2368405361
 H  3.7134314569  1.8122810644 -7.4847810160
 H  3.7170223755 -0.6734394125 -7.9247881006
 H  3.9987921390 -0.3680169288 -9.6179814515
 H  5.7948667417  0.3676010631 -7.1989074390
 H  6.2763403765  0.6240148121 -8.8893411185
 H  6.1903408440 -1.8257626129 -9.2943453976
 H  5.6885434225 -2.0598852240 -7.6729650985
 H  7.8711331053 -0.9529880913 -6.8848047964
 H  8.3572090218 -0.7942679538 -8.5783077704
 H  9.4532151941 -2.8863639749 -7.6741141246
 H  7.8316380372 -3.5293707683 -7.2889825019
 H  8.3315776688 -3.2124829349 -8.9694078415
23
step 9
 C  2.1038170816  1.4558270805 -8.9284111417
 C  3.5770491148  1.4818849610 -8.5039901879
 C  4.2074715146  0.0206616562 -8.6106814233
 C  8.4075199953 -2.8755615063 -7.9377777256
 C  6.2706585350 -1.3977171403 -8.3006777065
 C  7.7672208152 -1.4128124097 -7.8941920637
 C  5.6920554051 -0.0091912312 -8.2266467758
 H  1.5685524096  0.7807147059 -8.2611630107
 H  1.6208877310  2.4341917559 -8.8905781684
 H  1.9941740394  0.9912876360 -9.9120397584
 H  4.1474661499  2.0635168368 -9.2298843665
 H  3.7164654352  1.8173415226 -7.4743089279
 H  3.7240737425 -0.6745627759 -7.9219436565
 H  3.9949223459 -0.3632390950 -9.6115213620
 H  5.7943621203  0.3627565486 -7.2061944527
 H  6.2806143139  0.6230676024 -8.8881955618
 H  6.1910440691 -1.8240746420 -9.2973750816
 H  5.6795187511 -2.0630971838 -7.6710596424
 H  7.8669359248 -0.9504587558 -6.9001808041
 H  8.3556537261 -0.7961380006 -8.5788127935
 H  9.4695206708 -2.8910968420 -7.6667300039
 H  7.8303698511 -3.5292172131 -7.2925872757
 H  8.3328910414 -3.2089774968 -8.9690731122
23
step 10
 C  2.1048539144  1.4562710856 -8.9277462536
 C  3.5780514251  1.4858806607 -8.5003831795
 C  4.2085951011  0.0221692702 -8.6105650825
 C  8.4069442247 -2.8762136366 -7.9357037147
 C  6.2694828516 -1.3956499406 -8.3026629433
 C  7.7663399031 -1.4098723726 -7.8926169368
 C  5.6932516807 -0.0084814894 -8.2269345579
 H  1.5735955551  0.7789973391 -8.2580227758
 H  1.6181322350  2.4228418871 -8.8938825165
 H  2.0016258219  0.9909853491 -9.8994226871
 H  4.1457321653  2.0629557510 -9.2214268082
 H  3.7192840426  1.8235511048 -7.4648335655
 H  3.7301357973 -0.6748363833 -7.9192355989
 H  3.9924201085 -0.3582268989 -9.6048601669
 H  5.7939532192  0.3581355697 -7.2139710724
 H  6.2845479289  0.6228958955 -8.8867177388
 H  6.1914904856 -1.8216087800 -9.3009578124
 H  5.6713044124 -2.0662540577 -7.6685613619
 H  7.8629182030 -0.9491277338 -6.9164131532
 H  8.3532447184 -0.7979040779 -8.5792343909
 H  9.4844771539 -2.8953663300 -7.6589376183
 H  7.8296621691 -3.5296893470 -7.2962047497
 H  8.3340830107 -3.2063291833 -8.9684680794
23
step 11
 C  2.1058085024  1.4564856033 -8.9268955712
 C  3.5792609363  1.4893967901 -8.4968379506
 C  4.2094559332  0.0238759064 -8.6102845684
 C  8.4063478361 -2.8764455229 -7.9336592897
 C  6.2684318057 -1.3940230839 -8.3046039233
 C  7.7656607537 -1.4072458743 -7.8910750521
 C  5.6944321573 -0.0075552069 -8.2274142492
 H  1.5783598896  0.7781898236 -8.2546504969
 H  1.6155774521  2.4118730100 -8.8976455570
 H  2.0092921337  0.9918400268 -9.8878187158
 H  4.1442950571  2.0642133493 -9.2119890254
 H  3.7217670904  1.8306532385 -7.4570003255
 H  3.7351639900 -0.6741862045 -7.9167207917
 H  3.9911941534 -0.3532249356 -9.5986567130
 H  5.7937327830  0.3540895899 -7.2213212227
 H  6.2881060426  0.6235260680 -8.8849212912
 H  6.1916804318 -1.8183344637 -9.3049596020
 H  5.6644604277 -2.0687667242 -7.6660757824
 H  7.8592615986 -0.9482954494 -6.9318168529
 H  8.3501074152 -0.7994454867 -8.5797170264
 H  9.4964531473 -2.8991213585 -7.6511646452
 H  7.8293016045 -3.5310101920 -7.2995647379
 H  8.3351846918 -3.2045335512 -8.9675787911
23
step 12
 C  2.1067313646  1.4564346148 -8.9257626383
 C  3.5806489241  1.4924149298 -8.4932762490
 C  4.2100671673  0.0258121312 -8.6097766009
 C  8.4058416961 -2.8762343193 -7.9316342717
 C  6.2674805077 -1.3928883489 -8.3064671694
 C  7.7651548656 -1.4050238036 -7.8897046237
 C  5.6955849841 -0.0064294398 -8.2281568085
 H  1.5828358388  0.7783176062 -8.2511141885
 H  1.6128507172  2.4021805176 -8.9018112350
 H  2.0170397576  0.9933169122 -9.8783112178
 H  4.1435352559  2.0676732143 -9.2020951469
 H  3.7238094249  1.8383940536 -7.4513082118
 H  3.7391144429 -0.6725709974 -7.9144393162
 H  3.9911246425 -0.3484688071 -9.5935459573
 H  5.7937877768  0.3509478340 -7.2273615178
 H  6.2912644722  0.6249778475 -8.8828415942
 H  6.1916186319 -1.8142478704 -9.3092363285
 H  5.6594388004 -2.0701590543 -7.6641214150
 H  7.8561459033 -0.9472117688 -6.9446562239
 H  8.3463928208 -0.8006398778 -8.5804115085
 H  9.5042011816 -2.9023065628 -7.6437593901
 H  7.8291027254 -3.5333344520 -7.3024421199
 H  8.3362342565 -3.2035629665 -8.9663841249
23
step 13
 C  2.1076711060  1.4560953056 -8.9242683936
 C  3.5821878277  1.4949277135 -8.4896409830
 C  4.2104466732  0.0280055792 -8.6089903709
 C  8.4054971756 -2.8755704956 -7.9296211795
 C  6.2666134543 -1.3922764713 -8.3082297373
 C  7.7647924731 -1.4032874359 -7.8886288929
 C  5.6966994542 -0.0051210476 -8.2292146257
 H  1.5869811959  0.7793440910 -8.2474560769
 H  1.6096361972  2.3945355819 -8.9063188098
 H  2.0247499285  0.9949097800 -9.8718211701
 H  4.1437512139  2.0736047508 -9.1922005479
 H  3.7253287200  1.8465398376 -7.4480590405
 H  3.7419425158 -0.6699873111 -7.9124097744
 H  3.9920821685 -0.3441539279 -9.5900567882
 H  5.7941886606  0.3489734268 -7.2313645873
 H  6.2940115086  0.6272651395 -8.8805363144
 H  6.1913135470 -1.8093756381 -9.3136470173
 H  5.6565464505 -2.0701081859 -7.6630899126
 H  7.8537252471 -0.9451919633 -6.9533935711
 H  8.3422649121 -0.8013732271 -8.5814605377
 H  9.5069166966 -2.9048647397 -7.6369727373
 H  7.8289355308 -3.5367185256 -7.3046872781
 H  8.3372751155 -3.2033691182 -8.9648569560
23
step 14
 C  2.1086680074  1.4554609983 -8.9223637501
 C  3.5838556249  1.4969418097 -8.4859038797
 C  4.2106150461  0.0304784916 -8.6078942991
 C  8.4053429779 -2.8744592900 -7.9276144411
 C  6.2658260487 -1.3921950259 -8.3098804293
 C  7.7645462298 -1.4020957521 -7.8879337004
 C  5.6977672580 -0.0036434036 -8.2306119801
 H  1.5907191407  0.7811679828 -8.2436875930
 H  1.6057338195  2.3894766995 -8.9111055118
 H  2.0323294851  0.9962187475 -9.8689610386
 H  4.1451101059  2.0821147800 -9.1826288672
 H  3.7262703268  1.8548897200 -7.4473282470
 H  3.7436030703 -0.6664711135 -7.9106275372
 H  3.9939465138 -0.3404069732 -9.5885358475
 H  5.7949797850  0.3483242496 -7.2328729934
 H  6.2963476116  0.6303955241 -8.8780837772
 H  6.1907765795 -1.8037772191 -9.3180653495
 H  5.6559239224 -2.0684671002 -7.6632220091
 H  7.8521031353 -0.9417523850 -6.9569659192
 H  8.3378874848 -0.8015502347 -8.5829834387
 H  9.5042584941 -2.9067393251 -7.6309489398
 H  7.8287426030 -3.5411020015 -7.3062445527
 H  8.3383542826 -3.2038865330 -8.9629670840
23
step 15
 C  2.1097489033  1.4545424523 -8.9200391684
 C  3.5856388342  1.4984798822 -8.4820696053
 C  4.2105938911  0.0332455785 -8.6064806443
 C  8.4053645568 -2.8729207445 -7.9256105062
 C  6.2651252054 -1.3926277241 -8.3114201929
 C  7.7643942790 -1.4014745869 -7.8876496788
 C  5.6987834468 -0.0020040639 -8.2323389303
 H  1.5939411791  0.7836279003 -8.2397896685
 H  1.6011055258  2.3872296561 -8.9161061107
 H  2.0397153209  0.9970122877 -9.8699221855
 H  4.1476163788  2.0931148855 -9.1735324398
 H  3.7266094470  1.8632840922 -7.4489557525
 H  3.7440526625 -0.6620956726 -7.9090663077
 H  3.9966207264 -0.3372656868 -9.5890927188
 H  5.7961732560  0.3490280813 -7.2317759710
 H  6.2982831317  0.6343680866 -8.8755789165
 H  6.1900213414 -1.7975455419 -9.3223883627
 H  5.6575361264 -2.0652737625 -7.6645952070
 H  7.8513137893 -0.9367254030 -6.9550073092
 H  8.3334114342 -0.8011047451 -8.5850610893
 H  9.4963523244 -2.9078772025 -7.6257198857
 H  7.8285424537 -3.5463046062 -7.3071551784
 H  8.3395210064 -3.2050365005 -8.9606853325
23
step 16
 C  2.1109246222  1.4533673054 -8.9173282787
 C  3.5875333282  1.4995807998 -8.4781755332
 C  4.2104047321  0.0363126274 -8.6047668410
 C  8.4055053523 -2.8709881784 -7.9236090654
 C  6.2645292517 -1.3935348481 -8.3128619199
 C  7.7643219446 -1.4014115688 -7.8877463552
 C  5.6997469247 -0.0002040291 -8.2343504916
 H  1.5965154533  0.7865147217 -8.2357191525
 H  1.5958956870  2.3876770824 -8.9212493301
 H  2.0468709787  0.9972543466 -9.8744298328
 H  4.1511067889  2.1063134499 -9.1648863050
 H  3.7263508158  1.8716088138 -7.4525559143
 H  3.7432537269 -0.6569656440 -7.9076830215
 H  4.0000369401 -0.3346717604 -9.5915795138
 H  5.7977480515  0.3509790876 -7.2283271552
 H  6.2998342000  0.6391695794 -8.8731269279
 H  6.1890632325 -1.7908057681 -9.3265418259
 H  5.6611727556 -2.0607495008 -7.6671207467
 H  7.8513168714 -0.9303079664 -6.9479297339
 H  8.3289635143 -0.8000095360 -8.5877223871
 H  9.4837874832 -2.9082320780 -7.6212002358
 H  7.8284185181 -3.5520397141 -7.3075444521
 H  8.3408256378 -3.2067308980 -8.9579883399
23
step 17
 C  2.1121904891  1.4519776337 -8.9143040254
 C  3.5895427980  1.5002978793 -8.4742869790
 C  4.2100686648  0.0396761012 -8.6027931237
 C  8.4056698789 -2.8687052645 -7.9216150299
 C  6.2640671044 -1.3948548031 -8.3142296358
 C  7.7643217239 -1.4018587956 -7.8881410307
 C  5.7006604111  0.0017612835 -8.2365715183
 H  1.5983003588  0.7895912750 -8.2314214814
 H  1.5904188269  2.3903862665 -8.9264526726
 H  2.0537771568  0.9970882906 -9.8817816665
 H  4.1552737998  2.1212360849 -9.1565166552
 H  3.7255258405  1.8797944952 -7.4575469945
 H  3.7411805295 -0.6512076781 -7.9064257048
 H  4.0041528437 -0.3324786110 -9.5956103920
 H  5.7996547319  0.3539567415 -7.2230980068
 H  6.3010173001  0.6447693833 -8.8708352247
 H  6.1879194541 -1.7837120443 -9.3304822330
 H  5.6664585778 -2.0552865012 -7.6705501256
 H  7.8520076659 -0.9230220867 -6.9368271463
 H  8.3246378076 -0.7982843057 -8.5909341612
 H  9.4676033797 -2.9077682885 -7.6171841331
 H  7.8284964000 -3.5579423105 -7.3075962099
 H  8.3423186685 -3.2088756757 -8.9548636884
23
step 18
 C  2.1135293904  1.4504258240 -8.9110681239
 C  3.5916754366  1.5006955782 -8.4704884939
 C  4.2096066101  0.0433237069 -8.6006168868
 C  8.4057295633 -2.8661221654 -7.9196404661
 C  6.2637764727 -1.3965070418 -8.3155568437
 C  7.7643918715 -1.4027418374 -7.8887186803
 C  5.7015299495  0.0038997902 -8.2389060331
 H  1.5991625233  0.7926177048 -8.2268485649
 H  1.5851176153  2.3946869464 -8.9316182227
 H  2.0604199972  0.9967850146 -9.8909588837
 H  4.1597114471  2.1372710783 -9.1481547589
 H  3.7241870100  1.8878094823 -7.4632013064
 H  3.7378263093 -0.6449583357 -7.9052434462
 H  4.0089406772 -0.3304721751 -9.6006165937
 H  5.8018244505  0.3576616732 -7.2168809419
 H  6.3018433868  0.6511142027 -8.8688047601
 H  6.1866094002 -1.7764422983 -9.3341956853
 H  5.6728763365 -2.0494216034 -7.6744942354
 H  7.8532381977 -0.9156052872 -6.9232445537
 H  8.3204912557 -0.7960002283 -8.5945967745
 H  9.4492505003 -2.9064642755 -7.6133478874
 H  7.8289141785 -3.5636067907 -7.3075198716
 H  8.3440498804 -3.2113740704 -8.9513150999
23
step 19
 C  2.1149162357  1.4487692351 -8.9077365688
 C  3.5939398481  1.5008455141 -8.4668724332
 C  4.2090398537  0.0472356979 -8.5983049732
 C  8.4055329891 -2.8632913762 -7.9177053853
 C  6.2637007287 -1.3983967350 -8.3168836400
 C  7.7645342092 -1.4039714421 -7.8893551549
 C  5.7023641120  0.0062199572 -8.2412486783
 H  1.5989970704  0.7953793300 -8.2219793848
 H  1.5805023884  2.3997779462 -8.9366316552
 H  2.0667810885  0.9966736032 -9.9007772771
 H  4.1639726267  2.1537307335 -9.1395017016
 H  3.7223996117  1.8956451275 -7.4687158749
 H  3.7332106928 -0.6383506571 -7.9040971571
 H  4.0143726530 -0.3283999171 -9.6059244263
 H  5.8041799873  0.3617590888 -7.2105682543
 H  6.3023126236  0.6581237057 -8.8671220601
 H  6.1851552525 -1.7691913470 -9.3376941574
 H  5.6798062254 -2.0437922663 -7.6784598207
 H  7.8548413754 -0.9088750027 -6.9089011598
 H  8.3165443173 -0.7932794472 -8.5985472326
 H  9.4305004878 -2.9043142439 -7.6092666470
 H  7.8297912350 -3.5686288222 -7.3075158369
 H  8.3460675390 -3.2141297472 -8.9473674410
23
step 20
 C  2.1163225938  1.4470644210 -8.9044245818
 C  3.5963411806  1.5008227464 -8.4635263665
 C  4.2083905555  0.0513865786 -8.5959253986
 C  8.4049223730 -2.8602639732 -7.9158362510
 C  6.2638841918 -1.4004214113 -8.3182522684
 C  7.7647517563 -1.4054544846 -7.8899368309
 C  5.7031730502  0.0087281646 -8.2434959102
 H  1.5977470621  0.7977125814 -8.2168395198
 H  1.5770864053  2.4048382981 -8.9413652673
 H  2.0728314745  0.9970740110 -9.9100412633
 H  4.1676261098  2.1699173684 -9.1302896332
 H  3.7202314507  1.9032930906 -7.4732995020
 H  3.7273862494 -0.6315012110 -7.9029694409
 H  4.0204069683 -0.3260022239 -9.6108404793
 H  5.8066465529  0.3659206261 -7.2050332550
 H  6.3024108106  0.6656882880 -8.8658532649
 H  6.1835826240 -1.7621627993 -9.3410097467
 H  5.6865845959 -2.0390719686 -7.6819069907
 H  7.8566516036 -0.9036081501 -6.8954476032
 H  8.3127870239 -0.7902885526 -8.6025703080
 H  9.4132789322 -2.9013261478 -7.6044548694
 H  7.8312003224 -3.5726457103 -7.3077441430
 H  8.3484175284 -3.2170499575 -8.9430711293
23
step 21
 C  2.1177207115  1.4453618276 -8.9012337184
 C  3.5988780965  1.5007028922 -8.4605210203
 C  4.2076820412  0.0557469237 -8.5935398526
 C  8.4037568261 -2.8570868258 -7.9140615130
 C  6.2643659677 -1.4024793071 -8.3197011400
 C  7.7650465295 -1.4071023628 -7.8903735282
 C  5.7039674980  0.0114266072 -8.2455552902
 H  1.5954185573  0.7995243239 -8.2115152796
 H  1.5753284529  2.4091241603 -8.9456843149
 H  2.0785299186  0.9982444082 -9.9176739334
 H  4.1703046619  2.1851843740 -9.1203299673
 H  3.7177422100  1.9107169509 -7.4762663290
 H  3.7204430537 -0.6244996376 -7.9018718192
 H  4.0269773686 -0.3230412502 -9.6147304118
 H  5.8091608694  0.3698586534 -7.2010315627
 H  6.3021083166  0.6736697898 -8.8650411035
 H  6.1819211829 -1.7555603748 -9.3441875069
 H  5.6925798837 -2.0358872877 -7.6843267596
 H  7.8585190455 -0.9004564060 -6.8842956747
 H  8.3091896151 -0.7872262505 -8.6064165010
 H  9.3994110944 -2.8975148955 -7.5984371074
 H  7.8331461893 -3.5753708241 -7.3082997357
 H  8.3511422997 -3.2200485365 -8.9385052042
23
step 22
 C  2.1190866761  1.4437017428 -8.8982425669
 C  3.6015407273  1.5005600693 -8.4579004023
 C  4.2069388464  0.0602851378 -8.5911978564
 C  8.4019396598 -2.8538009979 -7.9124046136
 C  6.2651731194 -1.4044784448 -8.3212580425
 C  7.7654176581 -1.4088366676 -7.8906049392
 C  5.7047577773  0.0143117898 -8.2473521859
 H  1.5920882012  0.8008008937 -8.2061587553
 H  1.5755889996  2.4120423141 -8.9494550828
 H  2.0838243612  1.0003470680 -9.9228117989
 H  4.1717401484  2.1989864789 -9.1095448713
 H  3.7149748466  1.9178236439 -7.4771206876
 H  3.7125103473 -0.6174024376 -7.9008478608
 H  4.0339874699 -0.3193242208 -9.6170827816
 H  5.8116779614  0.3733508069 -7.1991296264
 H  6.3013618924  0.6819054345 -8.8647051227
 H  6.1802052590 -1.7495792449 -9.3472773641
 H  5.6972762272 -2.0347269564 -7.6853292249
 H  7.8603179004 -0.8998975603 -6.8765198863
 H  8.3057160171 -0.7843066068 -8.6098243597
 H  9.3903110961 -2.8928921282 -7.5908439269
 H  7.8355527334 -3.5766190481 -7.3091962006
 H  8.3542795615 -3.2230482722 -8.9337778428
23
step 23
 C  2.1204028524  1.4421119288 -8.8955012556
 C  3.6043094260  1.5004651573 -8.4556755029
 C  4.2061865869  0.0649690959 -8.5889329262
 C  8.3994427041 -2.8504411462 -7.9108765262
 C  6.2663145920 -1.4063447717 -8.3229340320
 C  7.7658598671 -1.4105928075 -7.8906025297
 C  5.7055528379  0.0173734878 -8.2488339559
 H  1.5879016212  0.8016053072 -8.2009818227
 H  1.5781010196  2.4131992687 -8.9525531220
 H  2.0886551845  1.0034305317 -9.9248654538
 H  4.1717852841  2.2109171708 -9.0979828075
 H  3.7119514106  1.9244425451 -7.4756164148
 H  3.7037547779 -0.6102320605 -7.8999713974
 H  4.0413096371 -0.3147201352 -9.6175547110
 H  5.8141757668  0.3762553253 -7.1996594251
 H  6.3001192414  0.6902146886 -8.8648448810
 H  6.1784744344 -1.7443978637 -9.3503254891
 H  5.7003478133 -2.0358612604 -7.6847239868
 H  7.8619505390 -0.9022128540 -6.8728104455
 H  8.3023380182 -0.7817399909 -8.6125442093
 H  9.3866966575 -2.8874572503 -7.5815096000
 H  7.8382597708 -3.5763213954 -7.3103588173
 H  8.3578607827 -3.2259820337 -8.9290227386
23
step 24
 C  2.1216598234  1.4406069632 -8.8930292294
 C  3.6071540799  1.5004837218 -8.4538224100
 C  4.2054517490  0.0697676675 -8.5867606990
 C  8.3963185818 -2.8470354920 -7.9094709518
 C  6.2677775383 -1.4080274983 -8.3247198633
 C  7.7663623594 -1.4123224126 -7.8903690809
 C  5.7063593618  0.0205940090 -8.2499720502
 H  1.5830627106  0.8020635854 -8.1962394115
 H  1.5829536818  2.4124294708 -8.9548705883
 H  2.0929591884  1.0074234931 -9.9235533821
 H  4.1704236787  2.2207336626 -9.0858208702
 H  3.7086746028  1.9303196371 -7.4717780166
 H  3.6943751317 -0.6029813937 -7.8993398309
 H  4.0487875398 -0.3091700530 -9.6159997485
 H  5.8166579659  0.3785189070 -7.2026947602
 H  6.2983257792  0.6984083235 -8.8654453538
 H  6.1767740652 -1.7401705734 -9.3533654977
 H  5.7017045180 -2.0392929562 -7.6825703920
 H  7.8633494731 -0.9074787011 -6.8734544679
 H  8.2990481422 -0.7797139513 -8.6143606312
 H  9.3884357357 -2.8811957089 -7.5705353884
 H  7.8410299408 -3.5745276536 -7.3116273641
 H  8.3619096838 -3.2287921553 -8.9243899671
23
step 25
 C  2.1228579432  1.4391890286 -8.8908155154
 C  3.6100338975  1.5006732229 -8.4522848662
 C  4.2047614563  0.0746521295 -8.5846787885
 C  8.3926952731 -2.8436061165 -7.9081645572
 C  6.2695272005 -1.4095003627 -8.3265863304
 C  7.7669081202 -1.4139950952 -7.8899374328
 C  5.7071809859  0.0239476974 -8.2507624581
 H  1.5778155060  0.8023431290 -8.1922044212
 H  1.5900865509  2.4098067067 -8.9563221553
 H  2.0966736416  1.0121364985 -9.9189161737
 H  4.1677700290  2.2283703710 -9.0733565901
 H  3.7051345999  1.9351305264 -7.4658803036
 H  3.6845938805 -0.5956228194 -7.8990633396
 H  4.0562414697 -0.3026914888 -9.6124794524
 H  5.8191553733  0.3801786236 -7.2080450819
 H  6.2959326919  0.7062987474 -8.8664835745
 H  6.1751556132 -1.7370211703 -9.3564100730
 H  5.7014955300 -2.0447544495 -7.6791809954
 H  7.8644785712 -0.9155646115 -6.8783288329
 H  8.2958697405 -0.7783759184 -8.6151116967
 H  9.3945918397 -2.8740873080 -7.5582896992
 H  7.8435656267 -3.5713963819 -7.3127689658
 H  8.3664408346 -3.2314280016 -8.9200310960
23
step 26
 C  2.1240084074  1.4378497968 -8.8888208812
 C  3.6128978209  1.5010796943 -8.4509805071
 C  4.2041432072  0.0795974116 -8.5826681446
 C  8.3887548777 -2.8401697579 -7.9069221472
 C  6.2715104041 -1.4107587798 -8.3284886310
 C  7.7674736539 -1.4155997326 -7.8893691051
 C  5.7080177202  0.0274007621 -8.2512246943
 H  1.5724213772  0.8026270154 -8.1891379168
 H  1.5992930660  2.4056406865 -8.9568492713
 H  2.0997400899  1.0172696825 -9.9113146126
 H  4.1640613425  2.2339408760 -9.0609906790
 H  3.7013190375  1.9385105558 -7.4583935054
 H  3.6746462153 -0.5881203328 -7.8992513990
 H  4.0634757654 -0.2953771277 -9.6072594862
 H  5.8217259312  0.3813584132 -7.2152657777
 H  6.2929052418  0.7137106173 -8.8679355285
 H  6.1736766162 -1.7350376547 -9.3594439981
 H  5.7000707148 -2.0517518349 -7.6750762688
 H  7.8653341119 -0.9261343548 -6.8868981734
 H  8.2928634302 -0.7778191265 -8.6147035974
 H  9.4036463221 -2.8661212772 -7.5453442610
 H  7.8455348374 -3.5671721523 -7.3135009726
 H  8.3714582948 -3.2338422520 -8.9160801592
23
step 27
 C  2.1251335639  1.4365731191 -8.8869817205
 C  3.6156858567  1.5017346365 -8.4498095456
 C  4.2036245459  0.0845830315 -8.5806958095
 C  8.3847046883 -2.8367395130 -7.9057042339
 C  6.2736616101 -1.4118140556 -8.3303735147
 C  7.7680291674 -1.4171449722 -7.8887525178
 C  5.7088656636  0.0309116439 -8.2513991911
 H  1.5671345165  0.8030879656 -8.1872585263
 H  1.6102337588  2.4004576065 -8.9564225663
 H  2.1021077369  1.0224271848 -9.9014097797
 H  4.1596388059  2.2377266222 -9.0492008366
 H  3.6972233395  1.9400955288 -7.4499078672
 H  3.6647675309 -0.5804429084 -7.8999983480
 H  4.0702879362 -0.2873875099 -9.6007894669
 H  5.8244529474  0.3822594429 -7.2236874292
 H  6.2892302757  0.7204907678 -8.8697824431
 H  6.1724001201 -1.7342684874 -9.3624199135
 H  5.6979125487 -2.0596419924 -7.6709043411
 H  7.8659453170 -0.9386529049 -6.8982224839
 H  8.2901295347 -0.7780727409 -8.6131197566
 H  9.4138040282 -2.8573110506 -7.5323734173
 H  7.8466038504 -3.5621510872 -7.3135229881
 H  8.3769541305 -3.2359870074 -8.9126339103
23
step 28
 C  2.1262661052  1.4353383733 -8.8852159639
 C  3.6183316179  1.5026531363 -8.4486646395
 C  4.2032326132  0.0895934992 -8.5787190801
 C  8.3807494508 -2.8333276011 -7.9044738654
 C  6.2759099220 -1.4126864313 -8.3321872685
 C  7.7685392627 -1.4186582192 -7.8881996159
 C  5.7097171306  0.0344321802 -8.2513427345
 H  1.5621784265  0.8038649336 -8.1867145002
 H  1.6224609123  2.3949607763 -8.9550421427
 H  2.1037362288  1.0271408078 -9.8901185427
 H  4.1549191510  2.2401493751 -9.0385059671
 H  3.6928589979  1.9395646436 -7.4410530603
 H  3.6551805399 -0.5725773345 -7.9013697691
 H  4.0764791390 -0.2789369974 -9.5936647122
 H  5.8274408639  0.3831427748 -7.2324689096