2
step 0
 H  0.0222695163  0.0000000000  0.0000000000
 F  0.9777304882  0.0000000000  0.0000000000
2
step 1
 H  0.0260886235 -0.0019205547  0.0000844307
 F  0.9739113810  0.0019205547 -0.0000844307
2
step 2
 H  0.0285397182 -0.0038139890  0.0001676692
 F  0.9702242099  0.0038098235 -0.0001674861
2
step 3
 H  0.0285564231 -0.0056953103  0.0002503752
 F  0.9667243495  0.0056692090 -0.0002492277
2
step 4
 H  0.0255414762 -0.0075826746  0.0003333468
 F  0.9634421254  0.0075003604 -0.0003297282
2
step 5
 H  0.0195038624 -0.0094847341  0.0004169645
 F  0.9603756078  0.0093044676 -0.0004090397
2
step 6
 H  0.0110469876 -0.0114018815  0.0005012454
 F  0.9574913366  0.0110822778 -0.0004871951
2
step 7
 H  0.0012213612 -0.0133240067  0.0005857452
 F  0.9547321972  0.0128339466 -0.0005642014
2
step 8
 H -0.0087187966 -0.0152226185  0.0006692113
 F  0.9520303221  0.0145586267 -0.0006400211
2
step 9
 H -0.0175601664 -0.0170617069  0.0007500607
 F  0.9493200056  0.0162550758 -0.0007145998
2
step 10
 H -0.0243334323 -0.0187993968  0.0008264524
 F  0.9465484161  0.0179217768 -0.0007878708
2
step 11
 H -0.0284355447 -0.0204088283  0.0008972056
 F  0.9436820643  0.0195580553 -0.0008598042
2
step 12
 H -0.0296996883 -0.0218764287  0.0009617237
 F  0.9407105520  0.0211639690 -0.0009304028
2
step 13
 H -0.0284055460 -0.0232062759  0.0010201860
 F  0.9376471848  0.0227405058 -0.0009997100
2
step 14
 H -0.0252390148 -0.0244223686  0.0010736475
 F  0.9345268932  0.0242896742 -0.0010678140
2
step 15
 H -0.0212017277 -0.0255686639  0.0011240405
 F  0.9314014482  0.0258144974 -0.0011348477
2
step 16
 H -0.0174635577 -0.0267052607  0.0011740071
 F  0.9283316040  0.0273188264 -0.0012009805
2
step 17
 H -0.0151635914 -0.0278990107  0.0012264863
 F  0.9253764792  0.0288068718 -0.0012663974
2
step 18
 H -0.0151883452 -0.0292098745  0.0012841141
 F  0.9225817477  0.0302825004 -0.0013312685
2
step 19
 H -0.0179806724 -0.0306756308  0.0013485511
 F  0.9199695021  0.0317484231 -0.0013957128
2
step 20
 H -0.0234397869 -0.0322995343  0.0014199406
 F  0.9175329968  0.0332055154 -0.0014597690
2
step 21
 H -0.0309512880 -0.0340470025  0.0014967622
 F  0.9152382991  0.0346526132 -0.0015233858
2
step 22
 H -0.0395340434 -0.0358521706  0.0015761203
 F  0.9130321108  0.0360868459 -0.0015864370
2
step 23
 H -0.0480523005 -0.0376323276  0.0016543789
 F  0.9108530039  0.0375044120 -0.0016487556
2
step 24
 H -0.0554311699 -0.0393040243  0.0017278695
 F  0.9086428052  0.0389014577 -0.0017101720
2
step 25
 H -0.0608297593 -0.0407977875  0.0017935378
 F  0.9063557397  0.0402748797 -0.0017705499
2
step 26
 H -0.0637547336 -0.0420692301  0.0018494325
 F  0.9039644449  0.0416229198 -0.0018298119
2
step 27
 H -0.0641188288 -0.0430806775  0.0018938974
 F  0.9014631011  0.0429441772 -0.0018878966
2
step 28
 H -0.0622399075 -0.0438784631  0.0019289693
 F  0.8988674261  0.0442416875 -0.0019449373
2
step 29
 H -0.0588034701 -0.0445195766  0.0019571537
 F  0.8962127199  0.0455190131 -0.0020010906
2
step 30
 H -0.0547684815 -0.0450893843  0.0019822034
 F  0.8935488721  0.0467811819 -0.0020565776
2
step 31
 H -0.0512208850 -0.0456913206  0.0020086655
 F  0.8909325595  0.0480341554 -0.0021116604
2
step 32
 H -0.0491837091 -0.0464291975  0.0020411038
 F  0.8884171267  0.0492839123 -0.0021666018
2
step 33
 H -0.0494145518 -0.0473860656  0.0020831693
 F  0.8860418115  0.0505353411 -0.0022216166
2
step 34
 H -0.0522413390 -0.0486041177  0.0021367169
 F  0.8838230366  0.0517911716 -0.0022768250
2
step 35
 H -0.0574906384 -0.0500484742  0.0022002132
 F  0.8817506414  0.0530500353 -0.0023321667
2
step 36
 H -0.0645257075 -0.0516779039  0.0022718456
 F  0.8797899405  0.0543101976 -0.0023875655
2
step 37
 H -0.0723986342 -0.0533898831  0.0023471070
 F  0.8778898102  0.0555666357 -0.0024428006
2
step 38
 H -0.0800462287 -0.0550642589  0.0024207153
 F  0.8759930630  0.0568133651 -0.0024976089
2
step 39
 H -0.0864858606 -0.0565861811  0.0024876215
 F  0.8740467985  0.0580446760 -0.0025517393
2
step 40
 H -0.0909709370 -0.0578653103  0.0025438541
 F  0.8720106208  0.0592561690 -0.0026049985
2
step 41
 H -0.0930920467 -0.0588493654  0.0025871148
 F  0.8698619992  0.0604454765 -0.0026572825
2
step 42
 H -0.0928285137 -0.0595102306  0.0026161675
 F  0.8675990257  0.0616115145 -0.0027085434
2
step 43
 H -0.0905408264 -0.0599085015  0.0026336762
 F  0.8652400478  0.0627578902 -0.0027589400
2
step 44
 H -0.0869306996 -0.0601290681  0.0026433726
 F  0.8628215733  0.0638894716 -0.0028086861
2
step 45
 H -0.0829423233 -0.0602912718  0.0026505034
 F  0.8603930291  0.0650129278 -0.0028580751
2
step 46
 H -0.0796140246 -0.0605320148  0.0026610868
 F  0.8580088618  0.0661358470 -0.0029074405
2
step 47
 H -0.0778920540 -0.0609813852  0.0026808419
 F  0.8557186212  0.0672654618 -0.0029571002
2
step 48
 H -0.0784396634 -0.0617358582  0.0027140098
 F  0.8535568073  0.0684072382 -0.0030072946
2
step 49
 H -0.0814946121 -0.0628142131  0.0027614160
 F  0.8515353183  0.0695625332 -0.0030580833
2
step 50
 H -0.0868061075 -0.0642073695  0.0028226615
 F  0.8496401353  0.0707312232 -0.0031094608
2
step 51
 H -0.0937037042 -0.0658231445  0.0028936936
 F  0.8478350089  0.0719087576 -0.0031612271
2
step 52
 H -0.1012429075 -0.0675256458  0.0029685383
 F  0.8460691918  0.0730882449 -0.0032130793
2
step 53
 H -0.1083974755 -0.0691636165  0.0030405462
 F  0.8442876199  0.0742619684 -0.0032646781
2
step 54
 H -0.1142436008 -0.0705977516  0.0031035932
 F  0.8424406475  0.0754228535 -0.0033157126
2
step 55
 H -0.1181033200 -0.0717233139  0.0031530747
 F  0.8404916274  0.0765656828 -0.0033659532
2
step 56
 H -0.1196387145 -0.0724663452  0.0031857396
 F  0.8384219044  0.0776868975 -0.0034152437
2
step 57
 H -0.1188905500 -0.0728224038  0.0032013925
 F  0.8362328833  0.0787866430 -0.0034635903
2
step 58
 H -0.1162683684 -0.0728768390  0.0032037856
 F  0.8339455309  0.0798698313 -0.0035112090
2
step 59
 H -0.1125074460 -0.0727433067  0.0031979153
 F  0.8315981077  0.0809428710 -0.0035583816
2
step 60
 H -0.1085625163 -0.0725740574  0.0031904748
 F  0.8292405186  0.0820142182 -0.0036054798
2
step 61
 H -0.1054545832 -0.0725369936  0.0031888454
 F  0.8269261505  0.0830931766 -0.0036529126
2
step 62
 H -0.1040836585 -0.0727849651  0.0031997467
 F  0.8247018947  0.0841882895 -0.0037010555
2
step 63
 H -0.1050435515 -0.0734238022  0.0032278310
 F  0.8225982926  0.0853056575 -0.0037501769
2
step 64
 H -0.1084926425 -0.0744673773  0.0032737083
 F  0.8206226795  0.0864465535 -0.0038003325
2
step 65
 H -0.1141072357 -0.0758837445  0.0033359741
 F  0.8187567299  0.0876098614 -0.0038514735
2
step 66
 H -0.1211657346 -0.0775499211  0.0034092219
 F  0.8169609398  0.0887896682 -0.0039033397
2
step 67
 H -0.1287016701 -0.0792964234  0.0034860011
 F  0.8151827362  0.0899776318 -0.0039555645
2
step 68
 H -0.1356953903 -0.0809411665  0.0035583067
 F  0.8133666092  0.0911648000 -0.0040077544
2
step 69
 H -0.1412517893 -0.0823214301  0.0036189853
 F  0.8114634876  0.0923433326 -0.0040595646
2
step 70
 H -0.1447356935 -0.0833195163  0.0036628628
 F  0.8094378773  0.0935078866 -0.0041107603
2
step 71
 H -0.1458600244 -0.0838611904  0.0036866757
 F  0.8072725180  0.0946555432 -0.0041612132
2
step 72
 H -0.1447193600 -0.0839533978  0.0036907293
 F  0.8049701672  0.0957878079 -0.0042109894
2
step 73
 H -0.1417768343 -0.0837030801  0.0036797249
 F  0.8025529182  0.0969116016 -0.0042603932
2
step 74
 H -0.1378201445 -0.0832566012  0.0036600970
 F  0.8000598680  0.0980360465 -0.0043098257
2
step 75
 H -0.1338499528 -0.0828048266  0.0036402362
 F  0.7975411710  0.0991727474 -0.0043597969
2
step 76
 H -0.1309202268 -0.0825540327  0.0036292109
 F  0.7950495202  0.1003342726 -0.0044108595
2
step 77
 H -0.1299430896 -0.0826879333  0.0036350974
 F  0.7926297410  0.1015321650 -0.0044635208
2
step 78
 H -0.1314974516 -0.0833286759  0.0036632655
 F  0.7903086107  0.1027748864 -0.0045181529
2
step 79
 H -0.1356992608 -0.0844862103  0.0037141526
 F  0.7880879873  0.1040651238 -0.0045748738
2
step 80
 H -0.1421588027 -0.0861062511  0.0037853723
 F  0.7859425907  0.1054023116 -0.0046336588
2
step 81
 H -0.1500765445 -0.0880276148  0.0038698386
 F  0.7838251372  0.1067803426 -0.0046942393
2
step 82
 H -0.1584067913 -0.0900342702  0.0039580544
 F  0.7816750489  0.1081903169 -0.0047562241
2
step 83
 H -0.1660579156 -0.0918966367  0.0040399271
 F  0.7794290734  0.1096227349 -0.0048191955
2
step 84
 H -0.1720760834 -0.0934104746  0.0041064779
 F  0.7770310196  0.1110695675 -0.0048828007
2
step 85
 H -0.1757863069 -0.0944282325  0.0041512202
 F  0.7744392530  0.1125259129 -0.0049468240
2
step 86
 H -0.1768901076 -0.0948588123  0.0041701492
 F  0.7716319402  0.1139899531 -0.0050111856
2
step 87
 H -0.1755016685 -0.0947423074  0.0041650275
 F  0.7686090795  0.1154668632 -0.0050761130
2
step 88
 H -0.1721633001 -0.0941929067  0.0041408749
 F  0.7653934599  0.1169657113 -0.0051420048
2
step 89
 H -0.1677944703 -0.0934112558  0.0041065123
 F  0.7620280818  0.1185000525 -0.0052094570
2
step 90
 H -0.1635778449 -0.0926635639  0.0040736425
 F  0.7585701884  0.1200867808 -0.0052792122
2
step 91
 H -0.1607726230 -0.0922412125  0.0040550753
 F  0.7550813903  0.1217439715 -0.0053520650
2
step 92
 H -0.1604707895 -0.0924050390  0.0040622773
 F  0.7516147463  0.1234879181 -0.0054287318
2
step 93
 H -0.1633483271 -0.0933249526  0.0041027182
 F  0.7482016190  0.1253299007 -0.0055097084
2
step 94
 H -0.1694885944 -0.0950316745  0.0041777485
 F  0.7448424293  0.1272735617 -0.0055951549
2
step 95
 H -0.1783468701 -0.0974015679  0.0042819330
 F  0.7415049432  0.1293140168 -0.0056848566
2
step 96
 H -0.1888697854 -0.1001806262  0.0044041049
 F  0.7381307419  0.1314390607 -0.0057782771
2
step 97
 H -0.1997229726 -0.1030382813  0.0045297321
 F  0.7346473290  0.1336320074 -0.0058746826
2
step 98
 H -0.2095458921 -0.1056371695  0.0046439835
 F  0.7309815690  0.1358754337 -0.0059733073
2
step 99
 H -0.2171972091 -0.1076728916  0.0047334772
 F  0.7270725777  0.1381533532 -0.0060734484
2
step 100
 H -0.2219037759 -0.1089376375  0.0047890775
 F  0.7228795388  0.1404546363 -0.0061746166
2
step 101
 H -0.2233710593 -0.1093436242  0.0048069254
 F  0.7183875691  0.1427742513 -0.0062765907
2
step 102
 H -0.2218332482 -0.1089408830  0.0047892202
 F  0.7136104651  0.1451141634 -0.0063794571
2
step 103
 H -0.2180483237 -0.1079216783  0.0047444143
 F  0.7085905361  0.1474835217 -0.0064836179
2
step 104
 H -0.2132305852 -0.1066173961  0.0046870759
 F  0.7033950331  0.1498984895 -0.0065897839
2
step 105
 H -0.2088885208 -0.1054458932  0.0046355747
 F  0.6981074150  0.1523795171 -0.0066988539
2
step 106
 H -0.2065700246 -0.1048497740  0.0046093683
 F  0.6928135939  0.1549481857 -0.0068117768
2
step 107
 H -0.2075360907 -0.1052033006  0.0046249099
 F  0.6875844043  0.1576223773 -0.0069293387
2
step 108
 H -0.2124477765 -0.1067166195  0.0046914379
 F  0.6824589283  0.1604112268 -0.0070519411
2
step 109
 H -0.2211818010 -0.1093717765  0.0048081630
 F  0.6774348333  0.1633116650 -0.0071794491
2
step 110
 H -0.2328554337 -0.1129186671  0.0049640901
 F  0.6724698896  0.1663081055 -0.0073111776
2
step 111
 H -0.2460477963 -0.1169320484  0.0051405250
 F  0.6674938057  0.1693754219 -0.0074460218
2
step 112
 H -0.2591228436 -0.1209053945  0.0053151998
 F  0.6624252540  0.1724839843 -0.0075826793
2
step 113
 H -0.2705448225 -0.1243484878  0.0054665638
 F  0.6571883516  0.1756049655 -0.0077198828
2
step 114
 H -0.2791181128 -0.1268665245  0.0055772609
 F  0.6517251469  0.1787146594 -0.0078565901
2
step 115
 H -0.2841369052 -0.1282139526  0.0056364960
 F  0.6460034829  0.1817973761 -0.0079921114
2
step 116
 H -0.2854604833 -0.1283262681  0.0056414336
 F  0.6400211151  0.1848470673 -0.0081261808
2
step 117
 H -0.2835318323 -0.1273346745  0.0055978415
 F  0.6338069362  0.1878679846 -0.0082589853
2
step 118
 H -0.2793428639 -0.1255629499  0.0055199536
 F  0.6274193315  0.1908744123 -0.0083911528
2
step 119
 H -0.2743298672 -0.1235001013  0.0054292674
 F  0.6209406533  0.1938892058 -0.0085236881
2
step 120
 H -0.2701742808 -0.1217379050  0.0053517983
 F  0.6144664563  0.1969405753 -0.0086578313
2
step 121
 H -0.2685016948 -0.1208675036  0.0053135340
 F  0.6080892214  0.2000567529 -0.0087948236
2
step 122
 H -0.2705232325 -0.1213477921  0.0053346483
 F  0.6018791146  0.2032591165 -0.0089356047
2
step 123
 H -0.2767256162 -0.1233826444  0.0054241038
 F  0.5958675825  0.2065556563 -0.0090805260
2
step 124
 H -0.2867363301 -0.1268565706  0.0055768233
 F  0.5900404662  0.2099374252 -0.0092291941
2
step 125
 H -0.2994270389 -0.1313587620  0.0057747470
 F  0.5843437775  0.2133796701 -0.0093805209
2
step 126
 H -0.3132055687 -0.1362837109  0.0059912558
 F  0.5786992691  0.2168471305 -0.0095329561
2
step 127
 H -0.3263738189 -0.1409656198  0.0061970802
 F  0.5730232313  0.2203012676 -0.0096848057
2
step 128
 H -0.3374394538 -0.1448023650  0.0063657499
 F  0.5672427054  0.2237070051 -0.0098345275
2
step 129
 H -0.3453284313 -0.1473458242  0.0064775645
 F  0.5613065198  0.2270376419 -0.0099809478
2
step 130
 H -0.3495006694 -0.1483564154  0.0065219918
 F  0.5551914111  0.2302777547 -0.0101233884
2
step 131
 H -0.3499935573 -0.1478298361  0.0064988425
 F  0.5489045248  0.2334245193 -0.0102617254
2
step 132
 H -0.3474125408 -0.1460026669  0.0064185171
 F  0.5424831825  0.2364878744 -0.0103963955
2
step 133
 H -0.3428694804 -0.1433353284  0.0063012565
 F  0.5359917776  0.2394895337 -0.0105283534
2
step 134
 H -0.3378510258 -0.1404639752  0.0061750271
 F  0.5295147405  0.2424604585 -0.0106589601
2
step 135
 H -0.3339964479 -0.1381097471  0.0060715314
 F  0.5231444966  0.2454361714 -0.0107897774
2
step 136
 H -0.3327898708 -0.1369444174  0.0060203016
 F  0.5169648292  0.2484497817 -0.0109222606
2
step 137
 H -0.3352253955 -0.1374359827  0.0060419116
 F  0.5110329562  0.2515238713 -0.0110574026
2
step 138
 H -0.3415547951 -0.1397233042  0.0061424660
 F  0.5053662428  0.2546637930 -0.0111954388
2
step 139
 H -0.3512252953 -0.1435732509  0.0063117160
 F  0.4999391718  0.2578552604 -0.0113357409
2
step 140
 H -0.3630371551 -0.1484403630  0.0065256822
 F  0.4946919266  0.2610674016 -0.0114769519
2
step 141
 H -0.3754484859 -0.1536015755  0.0067525776
 F  0.4895465652  0.2642599068 -0.0116172997
2
step 142
 H -0.3869083155 -0.1583122262  0.0069596656
 F  0.4844244795  0.2673914133 -0.0117549659
2
step 143
 H -0.3961255395 -0.1619379422  0.0071190580
 F  0.4792603990  0.2704266363 -0.0118883993
2
step 144
 H -0.4022394848 -0.1640433853  0.0072116167
 F  0.4740112926  0.2733411527 -0.0120165262
2
step 145
 H -0.4049025056 -0.1644400716  0.0072290557
 F  0.4686607987  0.2761239140 -0.0121388609
2
step 146
 H -0.4042982247 -0.1632033295  0.0071746865
 F  0.4632203815  0.2787780512 -0.0122555412
2
step 147
 H -0.4011106522 -0.1606647689  0.0070630872
 F  0.4577278977  0.2813203722 -0.0123673058
2
step 148
 H -0.3964428947 -0.1573781286  0.0069186011
 F  0.4522433770  0.2837795028 -0.0124754132
2
step 149
 H -0.3916716184 -0.1540507029  0.0067723220
 F  0.4468412299  0.2861922832 -0.0125814830
2
step 150
 H -0.3882273657 -0.1514327421  0.0066572321
 F  0.4415984038  0.2885979947 -0.0126872420
2
step 151
 H -0.3873186934 -0.1501722824  0.0066018203
 F  0.4365795697  0.2910307458 -0.0127941898
2
step 152
 H -0.3896620112 -0.1506668771  0.0066235635
 F  0.4318227496  0.2935116247 -0.0129032533
2
step 153
 H -0.3953108266 -0.1529578409  0.0067242780
 F  0.4273303865  0.2960430224 -0.0130145377
2
step 154
 H -0.4036518404 -0.1567270892  0.0068899803
 F  0.4230693450  0.2986083613 -0.0131273142
2
step 155
 H -0.4135670290 -0.1613779297  0.0070944389
 F  0.4189796484  0.3011763119 -0.0132402055
2
step 156
 H -0.4237130999 -0.1661718164  0.0073051861
 F  0.4149892939  0.3037080555 -0.0133515051
2
step 157
 H -0.4327916798 -0.1703830756  0.0074903199
 F  0.4110284625  0.3061655566 -0.0134595409
2
step 158
 H -0.4397697337 -0.1734163717  0.0076236686
 F  0.4070410845  0.3085178607 -0.0135629521
2
step 159
 H -0.4439957102 -0.1748947593  0.0076886610
 F  0.4029909650  0.3107457848 -0.0136608953
2
step 160
 H -0.4452682028 -0.1746930822  0.0076797949
 F  0.3988655060  0.3128436498 -0.0137531209
2
step 161
 H -0.4438429324 -0.1729466138  0.0076030173
 F  0.3946762228  0.3148196653 -0.0138399897
2
step 162
 H -0.4403930465 -0.1700335441  0.0074749540
 F  0.3904567700  0.3166949340 -0.0139224296
2
step 163
 H -0.4359235585 -0.1665314243  0.0073209950
 F  0.3862584545  0.3185011143 -0.0140018323
2
step 164
 H -0.4316290403 -0.1631389643  0.0071718569
 F  0.3821426393  0.3202762936 -0.0140798721
2
step 165
 H -0.4286951548 -0.1605607848  0.0070585159
 F  0.3781701151  0.3220589233 -0.0141582394
2
step 166
 H -0.4280681494 -0.1593695655  0.0070061479
 F  0.3743887951  0.3238805419 -0.0142383208
2
step 167
 H -0.4302480350 -0.1598780611  0.0070285022
 F  0.3708227530  0.3257589785 -0.0143208999
2
step 168
 H -0.4351745442 -0.1620619343  0.0071245089
 F  0.3674662706  0.3276942094 -0.0144059759
2
step 169
 H -0.4422515457 -0.1655668535  0.0072785909
 F  0.3642852552  0.3296686731 -0.0144927765
2
step 170
 H -0.4504990774 -0.1697967975  0.0074645462
 F  0.3612253735  0.3316519215 -0.0145799634
2
step 171
 H -0.4587749898 -0.1740492981  0.0076514931
 F  0.3582237906  0.3336078066 -0.0146659473
2
step 172
 H -0.4659972897 -0.1776522345  0.0078098841
 F  0.3552208882  0.3355017781 -0.0147492094
2
step 173
 H -0.4713169870 -0.1800726860  0.0079162911
 F  0.3521693634  0.3373066953 -0.0148285565
2
step 174
 H -0.4742262454 -0.1809872797  0.0079564982
 F  0.3490399520  0.3390065667 -0.0149032857
2
step 175
 H -0.4746215078 -0.1802969540  0.0079261503
 F  0.3458248269  0.3405973094 -0.0149732173
2
step 176
 H -0.4727719006 -0.1781900097  0.0078335256
 F  0.3425360038  0.3420900527 -0.0150388408
2
step 177
 H -0.4693152156 -0.1750643051  0.0076961145
 F  0.3392051930  0.3435069773 -0.0151011311
2
step 178
 H -0.4651636200 -0.1714971101  0.0075392947
 F  0.3358788095  0.3448797091 -0.0151614787
2
step 179
 H -0.4613686334 -0.1681625910  0.0073927038
 F  0.3326107639  0.3462449644 -0.0152214975
2
step 180
 H -0.4589412269 -0.1657166714  0.0072851771
 F  0.3294528448  0.3476384764 -0.0152827586
2
step 181
 H -0.4586524436 -0.1646669945  0.0072390316
 F  0.3264440898  0.3490881214 -0.0153464874
2
step 182
 H -0.4608650551 -0.1652600356  0.0072651027
 F  0.3236018610  0.3506079254 -0.0154133005
2
step 183
 H -0.4654633090 -0.1674031033  0.0073593155
 F  0.3209181755  0.3521938963 -0.0154830223
2
step 184
 H -0.4718555114 -0.1707353283  0.0075058055
 F  0.3183599098  0.3538277566 -0.0155548495
2
step 185
 H -0.4791462673 -0.1746658518  0.0076785978
 F  0.3158779656  0.3554789562 -0.0156274390
2
step 186
 H -0.4863195235 -0.1785186601  0.0078479736
 F  0.3134169522  0.3571123715 -0.0156992466
2
step 187
 H -0.4924291283 -0.1816596734  0.0079860577
 F  0.3109252345  0.3586950805 -0.0157688251
2
step 188
 H -0.4967475866 -0.1835975465  0.0080712498
 F  0.3083627722  0.3602017379 -0.0158350602
2
step 189
 H -0.4988603972 -0.1840493107  0.0080911101
 F  0.3057061137  0.3616180634 -0.0158973242
2
step 190
 H -0.4987217346 -0.1829568406  0.0080430833
 F  0.3029513839  0.3629416991 -0.0159555134
2
step 191
 H -0.4966267411 -0.1805354174  0.0079366336
 F  0.3001128673  0.3641847590 -0.0160101604
2
step 192
 H -0.4932019321 -0.1772058303  0.0077902594
 F  0.2972225380  0.3653702068 -0.0160622746
2
step 193
 H -0.4893121146 -0.1735560551  0.0076298093
 F  0.2943251207  0.3665298231 -0.0161132532
2
step 194
 H -0.4859286027 -0.1702532911  0.0074846144
 F  0.2914710558  0.3676995593 -0.0161646768
2
step 195
 H -0.4839581362 -0.1679264626  0.0073823232
 F  0.2887073654  0.3689133322 -0.0162180362
2
step 196
 H -0.4840601591 -0.1670390236  0.0073433099
 F  0.2860679213  0.3701962934 -0.0162744373
2
step 197
 H -0.4865116311 -0.1677702806  0.0073754572
 F  0.2835662831  0.3715585278 -0.0163343234
2
step 198
 H -0.4911279804 -0.1699907718  0.0074730736
 F  0.2811915504  0.3729937232 -0.0163974169
2
step 199
 H -0.4973033440 -0.1733060027  0.0076188166
 F  0.2789105481  0.3744814657 -0.0164628205
2
step 200
 H -0.5041742653 -0.1771091376  0.0077860087
 F  0.2766765270  0.3759900286 -0.0165291394
2
step 201
 H -0.5107888934 -0.1807267834  0.0079450463
 F  0.2744381104  0.3774841217 -0.0165948222
2
step 202
 H -0.5162802566 -0.1835419522  0.0080688058
 F  0.2721484352  0.3789314428 -0.0166584488
2
step 203
 H -0.5200002753 -0.1850904710  0.0081368812
 F  0.2697722202  0.3803078141 -0.0167189564
2
step 204
 H -0.5216128418 -0.1851102475  0.0081377506
 F  0.2672907004  0.3815997978 -0.0167757541
2
step 205
 H -0.5211206306 -0.1835918517  0.0080709994
 F  0.2647030816  0.3828073644 -0.0168288407
2
step 206
 H -0.5188529997 -0.1807916956  0.0079479000
 F  0.2620259451  0.3839445682 -0.0168788340
2
step 207
 H -0.5154518195 -0.1771675692  0.0077885774
 F  0.2592925268  0.3850361112 -0.0169268201
2
step 208
 H -0.5117725211 -0.1733358428  0.0076201284
 F  0.2565474612  0.3861150759 -0.0169742531
2
step 209
 H -0.5087505416 -0.1699763017  0.0074724375
 F  0.2538396546  0.3872178955 -0.0170227349
2
step 210
 H -0.5072318902 -0.1677089536  0.0073727611
 F  0.2512132439  0.3883778444 -0.0170737282
2
step 211
 H -0.5077984322 -0.1669656887  0.0073400860
 F  0.2486982987  0.3896182414 -0.0171282580
2
step 212
 H -0.5106465062 -0.1678786393  0.0073802208
 F  0.2463043973  0.3909465195 -0.0171866513
2
step 213
 H -0.5155267406 -0.1702632381  0.0074850517
 F  0.2440174799  0.3923533025 -0.0172484958
2
step 214
 H -0.5217986948 -0.1736718728  0.0076349009
 F  0.2418027922  0.3938152298 -0.0173127646
2
step 215
 H -0.5285953777 -0.1774623222  0.0078015352
 F  0.2396136229  0.3952985837 -0.0173779752
2
step 216
 H -0.5349907824 -0.1809445576  0.0079546200
 F  0.2374001592  0.3967670945 -0.0174425334
2
step 217
 H -0.5401637189 -0.1835033907  0.0080671105
 F  0.2351181274  0.3981884750 -0.0175050196
2
step 218
 H -0.5435219118 -0.1846925581  0.0081193883
 F  0.2327353408  0.3995394302 -0.0175644098
2
step 219
 H -0.5447867953 -0.1842823886  0.0081013566
 F  0.2302361998  0.4008081862 -0.0176201864
2
step 220
 H -0.5440156947 -0.1823053744  0.0080144438
 F  0.2276229037  0.4019968907 -0.0176724438
2
step 221
 H -0.5415862640 -0.1790642949  0.0078719606
 F  0.2249146715  0.4031220201 -0.0177219063
2
step 222
 H -0.5381761527 -0.1750679573  0.0076962750
 F  0.2221466900  0.4042109572 -0.0177697778
2
step 223
 H -0.5346587462 -0.1709780505  0.0075164760
 F  0.2193645698  0.4052991768 -0.0178176177
2
step 224
 H -0.5319639483 -0.1675044333  0.0073637701
 F  0.2166169123  0.4064247139 -0.0178670982
2
step 225
 H -0.5309050237 -0.1652728424  0.0072656657
 F  0.2139460690  0.4076211707 -0.0179196964
2
step 226
 H -0.5320060163 -0.1646918959  0.0072401263
 F  0.2113789598  0.4089106725 -0.0179763850
2
step 227
 H -0.5353902781 -0.1658449742  0.0072908175
 F  0.2089211800  0.4102981211 -0.0180373795
2
step 228
 H -0.5407365563 -0.1684826516  0.0074067742
 F  0.2065547204  0.4117707671 -0.0181021195
2
step 229
 H -0.5473498511 -0.1720895549  0.0075653396
 F  0.2042417692  0.4133017367 -0.0181694234
2
step 230
 H -0.5543338262 -0.1759694254  0.0077359050
 F  0.2019338586  0.4148545450 -0.0182376874
2
step 231
 H -0.5607614046 -0.1793978402  0.0078866238
 F  0.1995808722  0.4163912219 -0.0183052423
2
step 232
 H -0.5658339311 -0.1817474209  0.0079899152
 F  0.1971394279  0.4178789862 -0.0183706468
2
step 233
 H -0.5689983653 -0.1825811773  0.0080265685
 F  0.1945790553  0.4192952186 -0.0184329067
2
step 234
 H -0.5700259931 -0.1816983983  0.0079877601
 F  0.1918863728  0.4206298967 -0.0184915814
2
step 235
 H -0.5690298716 -0.1791770155  0.0078769160
 F  0.1890660501  0.4218878235 -0.0185468819
2
step 236
 H -0.5664454972 -0.1753775415  0.0077098849
 F  0.1861398272  0.4230888146 -0.0185996794
2
step 237
 H -0.5630051763 -0.1708762920  0.0075120025
 F  0.1831451724  0.4242641455 -0.0186513489
2
step 238
 H -0.5596264920 -0.1664012997  0.0073152745
 F  0.1801293353  0.4254531663 -0.0187036202
2
step 239
 H -0.5572636454 -0.1627150881  0.0071532226
 F  0.1771413889  0.4266971172 -0.0187583063
2
step 240
 H -0.5567249475 -0.1604686317  0.0070544647
 F  0.1742224705  0.4280314180 -0.0188169644
2
step 241
 H -0.5584960379 -0.1600586976  0.0070364433
 F  0.1713963607  0.4294781193 -0.0188805638
2
step 242
 H -0.5626341610 -0.1615186595  0.0071006256
 F  0.1686638869  0.4310401033 -0.0189492312
2
step 243
 H -0.5687271604 -0.1645360158  0.0072332736
 F  0.1660007898  0.4327019917 -0.0190222905
2
step 244
 H -0.5760134506 -0.1684926284  0.0074072128
 F  0.1633641125  0.4344322685 -0.0190983563
2
step 245
 H -0.5835398848 -0.1726110306  0.0075882645
 F  0.1607005418  0.4361910614 -0.0191756757
2
step 246
 H -0.5903471867 -0.1761045264  0.0077418443
 F  0.1579561527  0.4379381519 -0.0192524807
2
step 247
 H -0.5956295572 -0.1783080211  0.0078387136
 F  0.1550847601  0.4396399768 -0.0193272957
2
step 248
 H -0.5988480904 -0.1787730090  0.0078591552
 F  0.1520538449  0.4412747132 -0.0193991614
2
step 249
 H -0.5998075206 -0.1773126566  0.0077949557
 F  0.1488485846  0.4428346920 -0.0194677406
2
step 250
 H -0.5986710407 -0.1740459008  0.0076513437
 F  0.1454726429  0.4443287356 -0.0195334213
2
step 251
 H -0.5959403706 -0.1694023772  0.0074472068
 F  0.1419471242  0.4457824137 -0.0195973273
2
step 252
 H -0.5924320829 -0.1640529388  0.0072120367
 F  0.1383092916  0.4472343693 -0.0196611577
2
step 253
 H -0.5891596651 -0.1588375981  0.0069827618
 F  0.1346062174  0.4487325421 -0.0197270198
2
step 254
 H -0.5871714006 -0.1546317618  0.0067978663
 F  0.1308860337  0.4503271450 -0.0197971212
2
step 255
 H -0.5873466380 -0.1521753315  0.0066898776
 F  0.1271869769  0.4520616706 -0.0198733738
2
step 256
 H -0.5901967080 -0.1519038069  0.0066779409
 F  0.1235267530  0.4539639647 -0.0199570018
2
step 257
 H -0.5957485020 -0.1538188853  0.0067621309
 F  0.1198964093  0.4560393372 -0.0200482385
2
step 258
 H -0.6035006442 -0.1575133561  0.0069245459
 F  0.1162581546  0.4582718090 -0.0201463817
2
step 259
 H -0.6125665137 -0.1622239734  0.0071316324
 F  0.1125531180  0.4606268317 -0.0202499123
2
step 260
 H -0.6218547068 -0.1670059393  0.0073418555
 F  0.1087110553  0.4630604799 -0.0203568995
2
step 261
 H -0.6302745460 -0.1709081579  0.0075134034
 F  0.1046613458  0.4655287024 -0.0204654066
2
step 262
 H -0.6369097331 -0.1731237955  0.0076108065
 F  0.1003423326  0.4679952475 -0.0205738400
2
step 263
 H -0.6411427435 -0.1731010682  0.0076098074
 F  0.0957081820  0.4704374107 -0.0206812015
2
step 264
 H -0.6427498756 -0.1705997206  0.0074998440
 F  0.0907343814  0.4728488026 -0.0207872103
2
step 265
 H -0.6419086248 -0.1657813791  0.0072880218
 F  0.0854187615  0.4752438255 -0.0208924994
2
step 266
 H -0.6392461264 -0.1591779471  0.0069977241
 F  0.0797847653  0.4776556456 -0.0209985270
2
step 267
 H -0.6357847697 -0.1516784983  0.0066680360
 F  0.0738791600  0.4801351964 -0.0211075321
2
step 268
 H -0.6328228665 -0.1444302917  0.0063493929
 F  0.0677660588  0.4827457498 -0.0212222963
2
step 269
 H -0.6317178414 -0.1386599498  0.0060957192
 F  0.0615155013  0.4855533852 -0.0213457246
2
step 270
 H -0.6335997711 -0.1353872315  0.0059518451
 F  0.0551882072  0.4886118272 -0.0214801787
2
step 271
 H -0.6390697254 -0.1351795612  0.0059427156
 F  0.0488196011  0.4919494056 -0.0216269042
2
step 272
 H -0.6480210775 -0.1379650929  0.0060651721
 F  0.0424105295  0.4955590378 -0.0217855895
2
step 273
 H -0.6596554209 -0.1430330775  0.0062879691
 F  0.0359283138  0.4993981430 -0.0219543629
2
step 274
 H -0.6726754472 -0.1492164909  0.0065598021
 F  0.0293169080  0.5033983707 -0.0221302195
2
step 275
 H -0.6856038535 -0.1551599574  0.0068210866
 F  0.0225132907  0.5074800822 -0.0223096582
2
step 276
 H -0.6970657972 -0.1595885238  0.0070157737
 F  0.0154616013  0.5115670383 -0.0224893275
2
step 277
 H -0.7060014474 -0.1615090134  0.0071002016
 F  0.0081235826  0.5155975033 -0.0226665134
2
step 278
 H -0.7117987596 -0.1603334703  0.0070485228
 F  0.0004851049  0.5195310564 -0.0228394388
2
step 279
 H -0.7143414794 -0.1559484456  0.0068557499
 F -0.0074414086  0.5233523289 -0.0230074283
2
step 280
 H -0.7140344982 -0.1487360752  0.0065386822
 F -0.0156155154  0.5270720617 -0.0231709538
2
step 281
 H -0.7117728499 -0.1395654854  0.0061355280
 F -0.0239703264  0.5307266132 -0.0233316139
2
step 282
 H -0.7088538908 -0.1297031220  0.0057019623
 F -0.0324173968  0.5343733175 -0.0234919290
2
step 283
 H -0.7067949034 -0.1206498133  0.0053039640
 F -0.0408569917  0.5380821353 -0.0236549748
2
step 284
 H -0.7070516387 -0.1138676672  0.0050058097
 F -0.0491937380  0.5419215244 -0.0238237606
2
step 285
 H -0.7106787934 -0.1104410054  0.0048551680
 F -0.0573550928  0.5459406778 -0.0240004492
2
step 286
 H -0.7180450371 -0.1107740965  0.0048698113
 F -0.0653063823  0.5501534455 -0.0241856494
2
step 287
 H -0.7287255273 -0.1144781880  0.0050326492
 F -0.0730559989  0.5545320855 -0.0243781416
2
step 288
 H -0.7416249046 -0.1204789624  0.0052964531
 F -0.0806483921  0.5590127231 -0.0245751178
2
step 289
 H -0.7552869570 -0.1273072637  0.0055966365
 F -0.0881475843  0.5635107485 -0.0247728584
2
step 290
 H -0.7682247236 -0.1334404116  0.0058662597
 F -0.0956200629  0.5679391311 -0.0249675373
2
step 291
 H -0.7791865954 -0.1375790817  0.0060482025
 F -0.1031212085  0.5722233858 -0.0251558802
2
step 292
 H -0.7873173457 -0.1388216575  0.0061028281
 F -0.1106870569  0.5763109767 -0.0253355774
2
step 293
 H -0.7922359046 -0.1367476122  0.0060116497
 F -0.1183300629  0.5801756872 -0.0255054765
2
step 294
 H -0.7940392688 -0.1314461173  0.0057785873
 F -0.1260384657  0.5838189223 -0.0256656391
2
step 295
 H -0.7932899144 -0.1235009549  0.0054293049
 F -0.1337764734  0.5872686654 -0.0258172954
2
step 296
 H -0.7909538626 -0.1139471406  0.0050093035
 F -0.1414872825  0.5905770424 -0.0259627371
2
step 297
 H -0.7882902011 -0.1041428320  0.0045782900
 F -0.1490990245  0.5938135685 -0.0261050201
2
step 298