2
step 0
 H  0.0222695163  0.0000000000  0.0000000000
 F  0.9777304882  0.0000000000  0.0000000000
2
step 1
 H  0.0260876627 -0.0019200715  0.0000844095
 F  0.9739123418  0.0019200715 -0.0000844095
2
step 2
 H  0.0285381477 -0.0038130281  0.0001676270
 F  0.9702260979  0.0038088650 -0.0001674440
2
step 3
 H  0.0285548767 -0.0056938696  0.0002503119
 F  0.9667271166  0.0056677823 -0.0002491650
2
step 4
 H  0.0255407448 -0.0075807429  0.0003332619
 F  0.9634457153  0.0074984722 -0.0003296452
2
step 5
 H  0.0195047215 -0.0094822950  0.0004168573
 F  0.9603799653  0.0093021240 -0.0004089367
2
step 6
 H  0.0110500311 -0.0113989191  0.0005011152
 F  0.9574964167  0.0110794847 -0.0004870723
2
step 7
 H  0.0012268888 -0.0133205122  0.0005855916
 F  0.9547379708  0.0128307102 -0.0005640591
2
step 8
 H -0.0087108133 -0.0152185982  0.0006690346
 F  0.9520367779  0.0145549539 -0.0006398597
2
step 9
 H -0.0175500506 -0.0170571855  0.0007498619
 F  0.9493271481  0.0162509741 -0.0007144195
2
step 10
 H -0.0243217246 -0.0187944182  0.0008262335
 F  0.9465562618  0.0179172548 -0.0007876720
2
step 11
 H -0.0284229093 -0.0204034495  0.0008969692
 F  0.9436906366  0.0195531219 -0.0008595874
2
step 12
 H -0.0296868141 -0.0218707132  0.0009614725
 F  0.9407198761  0.0211586333 -0.0009301683
2
step 13
 H -0.0283930501 -0.0232002854  0.0010199227
 F  0.9376572824  0.0227347767 -0.0009994581
2
step 14
 H -0.0252273525 -0.0244161528  0.0010733742
 F  0.9345377777  0.0242835596 -0.0010675452
2
step 15
 H -0.0211911146 -0.0255622508  0.0011237585
 F  0.9314131208  0.0258080040 -0.0011345623
2
step 16
 H -0.0174539192 -0.0266986481  0.0011737164
 F  0.9283440507  0.0273119592 -0.0012006786
2
step 17
 H -0.0151545598 -0.0278921629  0.0012261853
 F  0.9253896709  0.0287996337 -0.0012660792
2
step 18
 H -0.0151793185 -0.0292027252  0.0012837998
 F  0.9225956431  0.0302748926 -0.0013309340
2
step 19
 H -0.0179709340 -0.0306680949  0.0013482198
 F  0.9199840541  0.0317404455 -0.0013953621
2
step 20
 H -0.0234286585 -0.0322915262  0.0014195885
 F  0.9175481609  0.0331971678 -0.0014594020
2
step 21
 H -0.0309382696 -0.0340384556  0.0014963864
 F  0.9152540405  0.0346438963 -0.0015230026
2
step 22
 H -0.0395189032 -0.0358430529  0.0015757195
 F  0.9130484093  0.0360777620 -0.0015860377
2
step 23
 H -0.0480350983 -0.0376226495  0.0016539535
 F  0.9108698548  0.0374949655 -0.0016483403
2
step 24
 H -0.0554122233 -0.0392938377  0.0017274217
 F  0.9086602181  0.0388916551 -0.0017097411
2
step 25
 H -0.0608095742 -0.0407871779  0.0017930714
 F  0.9063737343  0.0402647291 -0.0017701036
2
step 26
 H -0.0637339179 -0.0420583041  0.0018489522
 F  0.9039830466  0.0416124302 -0.0018293508
2
step 27
 H -0.0640980000 -0.0430695537  0.0018934083
 F  0.9014823364  0.0429333582 -0.0018874210
2
step 28
 H -0.0622196061 -0.0438672431  0.0019284761
 F  0.8988873172  0.0442305476 -0.0019444475
2
step 29
 H -0.0587840755 -0.0445083344  0.0019566595
 F  0.8962332811  0.0455075592 -0.0020005871
2
step 30
 H -0.0547501435 -0.0450781515  0.0019817096
 F  0.8935701057  0.0467694186 -0.0020560605
2
step 31
 H -0.0512034836 -0.0456800770  0.0020081712
 F  0.8909544537  0.0480220844 -0.0021111297
2
step 32
 H -0.0491668612 -0.0464178702  0.0020406058
 F  0.8884396559  0.0492715323 -0.0021660575
2
step 33
 H -0.0493976750 -0.0473745391  0.0020826626
 F  0.8860649398  0.0505226484 -0.0022210586
2
step 34
 H -0.0522237681 -0.0485922557  0.0021361954
 F  0.8838467240  0.0517781615 -0.0022762531
2
step 35
 H -0.0574717633 -0.0500361536  0.0021996715
 F  0.8817748511  0.0530367035 -0.0023315806
2
step 36
 H -0.0645050985 -0.0516650300  0.0022712796
 F  0.8798146453  0.0542965411 -0.0023869652
2
step 37
 H -0.0723761145 -0.0533764148  0.0023465149
 F  0.8779149968  0.0555526544 -0.0024421860
2
step 38
 H -0.0800218894 -0.0550502158  0.0024200979
 F  0.8760187323  0.0567990619 -0.0024969801
2
step 39
 H -0.0864600251 -0.0565716394  0.0024869822
 F  0.8740729640  0.0580300569 -0.0025510966
2
step 40
 H -0.0909440945 -0.0578503898  0.0025431982
 F  0.8720373050  0.0592412421 -0.0026043423
2
step 41
 H -0.0930647709 -0.0588342106  0.0025864486
 F  0.8698892293  0.0604302511 -0.0026566131
2
step 42
 H -0.0928013753 -0.0594949940  0.0026154977
 F  0.8676268289  0.0615960003 -0.0027078614
2
step 43
 H -0.0905143120 -0.0598933108  0.0026330084
 F  0.8652684470  0.0627420953 -0.0027582456
2
step 44
 H -0.0869051319 -0.0601140097  0.0026427106
 F  0.8628505831  0.0638734020 -0.0028079797
2
step 45
 H -0.0829177997 -0.0602763729  0.0026498484
 F  0.8604226519  0.0649965862 -0.0028573567
2
step 46
 H -0.0795903844 -0.0605172339  0.0026604370
 F  0.8580390870  0.0661192324 -0.0029067101
2
step 47
 H -0.0778688938 -0.0609666143  0.0026801925
 F  0.8557494250  0.0672485695 -0.0029563576
2
step 48
 H -0.0784164063 -0.0617209402  0.0027133539
 F  0.8535881571  0.0683900609 -0.0030065394
2
step 49
 H -0.0814706220 -0.0627989763  0.0027607462
 F  0.8515671786  0.0695450627 -0.0030573152
2
step 50
 H -0.0867808236 -0.0641916539  0.0028219706
 F  0.8496724746  0.0707134519 -0.0031086795
2
step 51
 H -0.0936767504 -0.0658068389  0.0028929768
 F  0.8478678059  0.0718906803 -0.0031604324
2
step 52
 H -0.1012141546 -0.0675087088  0.0029677938
 F  0.8461024382  0.0730698601 -0.0032122711
2
step 53
 H -0.1083670476 -0.0691460831  0.0030397754
 F  0.8443213212  0.0742432784 -0.0032638565
2
step 54
 H -0.1142118368 -0.0705797248  0.0031028007
 F  0.8424748206  0.0754038645 -0.0033148778
2
step 55
 H -0.1180707074 -0.0717049468  0.0031522673
 F  0.8405262974  0.0765464033 -0.0033651057
2
step 56
 H -0.1196058093 -0.0724478216  0.0031849253
 F  0.8384571001  0.0776673375 -0.0034143838
2
step 57
 H -0.1188578941 -0.0728039075  0.0032005794
 F  0.8362686329  0.0787668124 -0.0034627185
2
step 58
 H -0.1162364106 -0.0728585184  0.0032029802
 F  0.8339818581  0.0798497383 -0.0035103257
2
step 59
 H -0.1124764658 -0.0727252549  0.0031971217
 F  0.8316350271  0.0809225205 -0.0035574870
2
step 60
 H -0.1085325657 -0.0725562920  0.0031896938
 F  0.8292780332  0.0819936111 -0.0036045739
2
step 61
 H -0.1054254610 -0.0725194476  0.0031880741
 F  0.8269642499  0.0830723092 -0.0036519952
2
step 62
 H -0.1040549332 -0.0727674935  0.0031989786
 F  0.8247405565  0.0841671538 -0.0037001264
2
step 63
 H -0.1050146370 -0.0734062058  0.0032270574
 F  0.8226374863  0.0852842426 -0.0037492354
2
step 64
 H -0.1084629142 -0.0744494456  0.0032729199
 F  0.8206623732  0.0864248477 -0.0037993783
2
step 65
 H -0.1140761629 -0.0758652898  0.0033351628
 F  0.8187968967  0.0875878540 -0.0038505060
2
step 66
 H -0.1211329808 -0.0775308206  0.0034083823
 F  0.8170015635  0.0887673519 -0.0039023586
2
step 67
 H -0.1286671462 -0.0792766411  0.0034851314
 F  0.8152238140  0.0899550038 -0.0039545698
2
step 68
 H -0.1356592540 -0.0809207571  0.0035574094
 F  0.8134081517  0.0911418619 -0.0040067460
2
step 69
 H -0.1412144025 -0.0823005278  0.0036180664
 F  0.8115055168  0.0923200903 -0.0040585429
2
step 70
 H -0.1446975551 -0.0832983115  0.0036619306
 F  0.8094804229  0.0934843486 -0.0041097256
2
step 71
 H -0.1458216912 -0.0838399043  0.0036857399
 F  0.8073156130  0.0946317194 -0.0041601659
2
step 72
 H -0.1446813647 -0.0839322466  0.0036897995
 F  0.8050138442  0.0957637075 -0.0042099299
2
step 73
 H -0.1417396078 -0.0836822345  0.0036788085
 F  0.8025972050  0.0968872313 -0.0042593219
2
step 74
 H -0.1377839384 -0.0832361609  0.0036591984
 F  0.8001047834  0.0980114088 -0.0043087426
2
step 75
 H -0.1338147819 -0.0827847967  0.0036393557
 F  0.7975867221  0.0991478394 -0.0043587019
2
step 76
 H -0.1308858454 -0.0825343145  0.0036283441
 F  0.7950957010  0.1003090856 -0.0044097522
2
step 77
 H -0.1299090185 -0.0826683341  0.0036342358
 F  0.7926765342  0.1015066847 -0.0044624006
2
step 78
 H -0.1314630615 -0.0833089404  0.0036623979
 F  0.7903559917  0.1027490946 -0.0045170190
2
step 79
 H -0.1356638961 -0.0844660743  0.0037132674
 F  0.7881359316  0.1040390015 -0.0045737254
2
step 80
 H -0.1421219187 -0.0860854855  0.0037844594
 F  0.7859910805  0.1053758411 -0.0046324951
2
step 81
 H -0.1500378090 -0.0880060752  0.0038688917
 F  0.7838741673  0.1067535099 -0.0046930597
2
step 82
 H -0.1583661351 -0.0900119224  0.0039570720
 F  0.7817246294  0.1081631133 -0.0047550282
2
step 83
 H -0.1660155273 -0.0918735606  0.0040389127
 F  0.7794792295  0.1095951571 -0.0048179832
2
step 84
 H -0.1720323642 -0.0933868492  0.0041054393
 F  0.7770817888  0.1110416166 -0.0048815719
2
step 85
 H -0.1757418008 -0.0944043073  0.0041501684
 F  0.7744906823  0.1124975931 -0.0049455790
2
step 86
 H -0.1768454188 -0.0948348749  0.0041690969
 F  0.7716840811  0.1139612700 -0.0050099247
2
step 87
 H -0.1754573787 -0.0947186320  0.0041639867
 F  0.7686619838  0.1154378207 -0.0050748363
2
step 88
 H -0.1721198764 -0.0941697142  0.0041398554
 F  0.7654471749  0.1169363099 -0.0051407123
2
step 89
 H -0.1677521766 -0.0933886705  0.0041055194
 F  0.7620826455  0.1184702867 -0.0052081485
2
step 90
 H -0.1635366690 -0.0926415789  0.0040726760
 F  0.7586256255  0.1200566375 -0.0052778870
2
step 91
 H -0.1607322424 -0.0922196736  0.0040541284
 F  0.7551377102  0.1217134291 -0.0053507223
2
step 92
 H -0.1604306011 -0.0923836574  0.0040613374
 F  0.7516719450  0.1234569473 -0.0054273702
2
step 93
 H -0.1633075521 -0.0933033518  0.0041017686
 F  0.7482596841  0.1252984668 -0.0055083265
2
step 94
 H -0.1694464393 -0.0950094639  0.0041767721
 F  0.7449013487  0.1272416290 -0.0055937511
2
step 95
 H -0.1783026948 -0.0973784241  0.0042809155
 F  0.7415647139  0.1292815527 -0.0056834295
2
step 96
 H -0.1888232265 -0.1001563585  0.0044030381
 F  0.7381913760  0.1314060391 -0.0057768254
2
step 97
 H -0.1996739938 -0.1030128666  0.0045286149
 F  0.7347088565  0.1335984111 -0.0058732057
2
step 98
 H -0.2094947668 -0.1056107518  0.0046428222
 F  0.7310440365  0.1358412542 -0.0059718047
2
step 99
 H -0.2171444514 -0.1076457581  0.0047322844
 F  0.7271360448  0.1381185895 -0.0060719201
2
step 100
 H -0.2218500557 -0.1089101726  0.0047878701
 F  0.7229440731  0.1404192927 -0.0061730628
2
step 101
 H -0.2233171055 -0.1093162536  0.0048057221
 F  0.7184532413  0.1427383342 -0.0062750117
2
step 102
 H -0.2217797473 -0.1089140109  0.0047880389
 F  0.7136773432  0.1450776784 -0.0063778531
2
step 103
 H -0.2179958133 -0.1078956202  0.0047432687
 F  0.7086586798  0.1474464698 -0.0064819891
2
step 104
 H -0.2131793475 -0.1065923118  0.0046859731
 F  0.7034644878  0.1498608640 -0.0065881298
2
step 105
 H -0.2088384945 -0.1054217370  0.0046345128
 F  0.6981782069  0.1523413007 -0.0066971739
2
step 106
 H -0.2065207692 -0.1048262744  0.0046083352
 F  0.6928857283  0.1549093496 -0.0068100695
2
step 107
 H -0.2074868391 -0.1051799900  0.0046238852
 F  0.6876578681  0.1575828829 -0.0069276024
2
step 108
 H -0.2123975862 -0.1066929184  0.0046903960
 F  0.6825336980  0.1603710299 -0.0070501740
2
step 109
 H -0.2211297668 -0.1093471157  0.0048070789
 F  0.6775108863  0.1632707226 -0.0071776492
2
step 110
 H -0.2328008877 -0.1128926113  0.0049629447
 F  0.6725472149  0.1662663822 -0.0073093433
2
step 111
 H -0.2459904292 -0.1169043825  0.0051393087
 F  0.6675724099  0.1693328948 -0.0074441523
2
step 112
 H -0.2590627272 -0.1208761572  0.0053139145
 F  0.6625051626  0.1724406445 -0.0075807741
2
step 113
 H -0.2704823555 -0.1243179537  0.0054652215
 F  0.6572696060  0.1755608174 -0.0077179420
2
step 114
 H -0.2790539276 -0.1268351521  0.0055758817
 F  0.6518077995  0.1786697178 -0.0078546144
2
step 115
 H -0.2840717648 -0.1281823126  0.0056351051
 F  0.6460875919  0.1817516625 -0.0079901017
2
step 116
 H -0.2853951785 -0.1282949619  0.0056400573
 F  0.6401067385  0.1848006055 -0.0081241382
2
step 117
 H -0.2834670793 -0.1273042468  0.0055965038
 F  0.6338941270  0.1878207959 -0.0082569108
2
step 118
 H -0.2792791979 -0.1255337994  0.0055186721
 F  0.6275081315  0.1908265111 -0.0083890470
2
step 119
 H -0.2742675374 -0.1234723971  0.0054280494
 F  0.6210310877  0.1938405951 -0.0085215510
2
step 120
 H -0.2701131676 -0.1217115256  0.0053506386
 F  0.6145585290  0.1968912435 -0.0086556626
2
step 121
 H -0.2684412891 -0.1208420250  0.0053124139
 F  0.6081829140  0.2000066731 -0.0087926220
2
step 122
 H -0.2704627135 -0.1213225465  0.0053335385
 F  0.6019743910  0.2032082496 -0.0089333685
2
step 123
 H -0.2766640300 -0.1233568520  0.0054229699
 F  0.5959643978  0.2065039580 -0.0090782533
2
step 124
 H -0.2866728150 -0.1268295107  0.0055756337
 F  0.5901387792  0.2098848551 -0.0092268831
2
step 125
 H -0.2993610147 -0.1313299287  0.0057734794
 F  0.5844435602  0.2133261998 -0.0093781702
2
step 126
 H -0.3131368293 -0.1362529073  0.0059899016
 F  0.5788005120  0.2167927489 -0.0095305654
2
step 127
 H -0.3263025246 -0.1409329766  0.0061956452
 F  0.5731259426  0.2202459819 -0.0096823752
2
step 128
 H -0.3373660564 -0.1447682985  0.0063642522
 F  0.5673469072  0.2236508381 -0.0098320583
2
step 129
 H -0.3452535752 -0.1473109564  0.0064760317
 F  0.5614122432  0.2269806284 -0.0099784414
2
step 130
 H -0.3494250914 -0.1483214773  0.0065204558
 F  0.5552986904  0.2302199357 -0.0101208466
2
step 131
 H -0.3499179930 -0.1477955640  0.0064973358
 F  0.5490133931  0.2333659369 -0.0102591500
2
step 132
 H -0.3473376326 -0.1459696959  0.0064170676
 F  0.5425936666  0.2364285660 -0.0103937882
2
step 133
 H -0.3427956836 -0.1433040876  0.0062998831
 F  0.5361038932  0.2394295263 -0.0105257154
2
step 134
 H -0.3377785182 -0.1404345964  0.0061737356
 F  0.5296284871  0.2423997642 -0.0106562919
2
step 135
 H -0.3339250664 -0.1380820086  0.0060703119
 F  0.5232598541  0.2453747840 -0.0107870787
2
step 136
 H -0.3327191112 -0.1369177526  0.0060191293
 F  0.5170817584  0.2483876775 -0.0109195304
2
step 137
 H -0.3351545037 -0.1374095741  0.0060407506
 F  0.5111514031  0.2514610139 -0.0110546393
2
step 138
 H -0.3414829403 -0.1396962525  0.0061412768
 F  0.5054861487  0.2546001421 -0.0111926406
2
step 139
 H -0.3511517676 -0.1435447729  0.0063104640
 F  0.5000604833  0.2577907824 -0.0113329063
2
step 140
 H -0.3629615151 -0.1484099537  0.0065243454
 F  0.4948146037  0.2610020780 -0.0114740802
2
step 141
 H -0.3753706228 -0.1535690913  0.0067511495
 F  0.4896705843  0.2641937389 -0.0116143908
2
step 142
 H -0.3868284224 -0.1582778846  0.0069581558
 F  0.4845498323  0.2673244220 -0.0117520208
2
step 143
 H -0.3960440400 -0.1619022583  0.0071174892
 F  0.4793870885  0.2703588587 -0.0118854196
2
step 144
 H -0.4021569450 -0.1640070736  0.0072100204
 F  0.4741393290  0.2732726368 -0.0120135141
2
step 145
 H -0.4048195495 -0.1644039344  0.0072274670
 F  0.4687901943  0.2760547127 -0.0121358187
2
step 146
 H -0.4042154562 -0.1631681410  0.0071731395
 F  0.4633511475  0.2787082161 -0.0122524711
2
step 147
 H -0.4010285796 -0.1606311616  0.0070616097
 F  0.4578600395  0.2812499477 -0.0123642098
2
step 148
 H -0.3963618549 -0.1573464877  0.0069172101
 F  0.4523768908  0.2837085202 -0.0124722927
2
step 149
 H -0.3915917087 -0.1540210833  0.0067710198
 F  0.4469760988  0.2861207566 -0.0125783386
2
step 150
 H -0.3881484040 -0.1514048310  0.0066560051
 F  0.4417345958  0.2885259187 -0.0126840734
2
step 151
 H -0.3872402345 -0.1501454342  0.0066006399
 F  0.4367170387  0.2909580974 -0.0127909960
2
step 152
 H -0.3895834355 -0.1506402311  0.0066223920
 F  0.4319614400  0.2934383696 -0.0129000329
2
step 153
 H -0.3952314825 -0.1529305021  0.0067230761
 F  0.4274702415  0.2959691244 -0.0130112890
2
step 154
 H -0.4035711953 -0.1566983175  0.0068887155
 F  0.4232103141  0.2985337923 -0.0131240360
2
step 155
 H -0.4134847751 -0.1613472835  0.0070930916
 F  0.4191216930  0.3011010597 -0.0132368973
2
step 156
 H -0.4236291865 -0.1661392167  0.0073037529
 F  0.4151323896  0.3036321268 -0.0133481672
2
step 157
 H -0.4327062870 -0.1703487908  0.0074888127
 F  0.4111725970  0.3060889766 -0.0134561743
2
step 158
 H -0.4396832102 -0.1733809470  0.0076221112
 F  0.4071862550  0.3084406691 -0.0135595586
2
step 159
 H -0.4439085076 -0.1748589146  0.0076870851
 F  0.4031371746  0.3106680303 -0.0136574770
2
step 160
 H -0.4451808094 -0.1746575996  0.0076782350
 F  0.3990127600  0.3127653841 -0.0137496802
2
step 161
 H -0.4437558112 -0.1729122228  0.0076015054
 F  0.3948245259  0.3147409372 -0.0138365287
2
step 162
 H -0.4403065746 -0.1700008122  0.0074735150
 F  0.3906061229  0.3166157834 -0.0139189500
2
step 163
 H -0.4358379682 -0.1665006603  0.0073196425
 F  0.3864088504  0.3184215671 -0.0139983353
2
step 164
 H -0.4315443691 -0.1631101499  0.0071705901
 F  0.3822940619  0.3201963581 -0.0140763580
2
step 165
 H -0.4286112231 -0.1605335571  0.0070573189
 F  0.3783225370  0.3219785892 -0.0141547078
2
step 166
 H -0.4279845832 -0.1593432681  0.0070049918
 F  0.3745421791  0.3237997830 -0.0142347705
2
step 167
 H -0.4301643423 -0.1598518675  0.0070273507
 F  0.3709770564  0.3256777594 -0.0143173294
2
step 168
 H -0.4350902262 -0.1620350184  0.0071233256
 F  0.3676214508  0.3276124944 -0.0144023835
2
step 169
 H -0.4421662069 -0.1655385586  0.0072773470
 F  0.3644412758  0.3295864351 -0.0144891612
2
step 170
 H -0.4504124978 -0.1697667580  0.0074632256
 F  0.3613822080  0.3315691485 -0.0145763245
2
step 171
 H -0.4586871468 -0.1740174878  0.0076500946
 F  0.3583814236  0.3335245044 -0.0146622852
2
step 172
 H -0.4659083364 -0.1776189460  0.0078084206
 F  0.3553793140  0.3354179692 -0.0147455250
2
step 173
 H -0.4712272065 -0.1800384609  0.0079147865
 F  0.3523285839  0.3372224149 -0.0148248514
2
step 174
 H -0.4741359989 -0.1809528118  0.0079549829
 F  0.3491999737  0.3389218581 -0.0148995617
2
step 175
 H -0.4745311767 -0.1802629837  0.0079246569
 F  0.3459856582  0.3405122179 -0.0149694766
2
step 176
 H -0.4726818477 -0.1781572081  0.0078320835
 F  0.3426976525  0.3420046196 -0.0150350850
2
step 177
 H -0.4692257293 -0.1750331727  0.0076947458
 F  0.3393676635  0.3434212346 -0.0150973617
2
step 178
 H -0.4650748662 -0.1714678886  0.0075380101
 F  0.3360421002  0.3447936749 -0.0151576964
2
step 179
 H -0.4612806167 -0.1681352059  0.0073914998
 F  0.3327748652  0.3461586396 -0.0152177025
2
step 180
 H -0.4588537766 -0.1656907273  0.0072840365
 F  0.3296177381  0.3475518449 -0.0152789501
2
step 181
 H -0.4585652382 -0.1646418357  0.0072379256
 F  0.3266097492  0.3490011529 -0.0153426641
2
step 182
 H -0.4607776886 -0.1652348708  0.0072639963
 F  0.3237682563  0.3505205821 -0.0154094607
2
step 183
 H -0.4653753756 -0.1673771694  0.0073581753
 F  0.3210852773  0.3521061418 -0.0154791645
2
step 184
 H -0.4717667019 -0.1707080384  0.0075046058
 F  0.3185276940  0.3537395637 -0.0155509724
2
step 185
 H -0.4790564182 -0.1746369032  0.0076773251
 F  0.3160464163  0.3553903123 -0.0156235420
2
step 186
 H -0.4862286314 -0.1784880729  0.0078466289
 F  0.3135860625  0.3570232811 -0.0156953300
2
step 187
 H -0.4923373312 -0.1816277662  0.0079846550
 F  0.3110950052  0.3586055639 -0.0157648898
2
step 188
 H -0.4966551268 -0.1835648669  0.0080698131
 F  0.3085332100  0.3601118271 -0.0158311076
2
step 189
 H -0.4987675794 -0.1840165413  0.0080896694
 F  0.3058772292  0.3615277975 -0.0158933560
2
step 190
 H -0.4986288784 -0.1829246947  0.0080416701
 F  0.3031231885  0.3628511187 -0.0159515313
2
step 191
 H -0.4965341470 -0.1805045270  0.0079352755
 F  0.3002853719  0.3640939001 -0.0160061661
2
step 192
 H -0.4931098337 -0.1771766471  0.0077889764
 F  0.2973957504  0.3652790958 -0.0160582692
2
step 193
 H -0.4892206362 -0.1735287666  0.0076286096
 F  0.2944990430  0.3664384722 -0.0161092373
2
step 194
 H -0.4858377276 -0.1702277716  0.0074834925
 F  0.2916456831  0.3676079639 -0.0161606501
2
step 195
 H -0.4838676978 -0.1679022779  0.0073812599
 F  0.2888826848  0.3688214711 -0.0162139979
2
step 196
 H -0.4839698662 -0.1670155012  0.0073422758
 F  0.2862439140  0.3701041329 -0.0162703858
2
step 197
 H -0.4864211242 -0.1677466406  0.0073744179
 F  0.2837429265  0.3714660281 -0.0163302569
2
step 198
 H -0.4910369131 -0.1699662846  0.0074719971
 F  0.2813688232  0.3729008470 -0.0163933339
2
step 199
 H -0.4972114622 -0.1732801298  0.0076176791
 F  0.2790884341  0.3743881860 -0.0164587198
2
step 200
 H -0.5040814437 -0.1770816297  0.0077847993
 F  0.2768550168  0.3758963333 -0.0165250204
2
step 201
 H -0.5106951443 -0.1806977094  0.0079437681
 F  0.2746172026  0.3773900157 -0.0165906851
2
step 202
 H -0.5161857118 -0.1835116693  0.0080674744
 F  0.2723281346  0.3788369461 -0.0166542946
2
step 203
 H -0.5199051541 -0.1850595530  0.0081355219
 F  0.2699525365  0.3802129581 -0.0167147863
2
step 204
 H -0.5215174107 -0.1850793898  0.0081363940
 F  0.2674716461  0.3815046202 -0.0167715699
2
step 205
 H -0.5210251688 -0.1835617637  0.0080696767
 F  0.2648846702  0.3827119035 -0.0168246441
2
step 206
 H -0.5187577680 -0.1807629894  0.0079466379
 F  0.2622081892  0.3838488570 -0.0168746264
2
step 207
 H -0.5153570155 -0.1771406606  0.0077873944
 F  0.2594754360  0.3849401725 -0.0169226024
2
step 208
 H -0.5116782410 -0.1733108704  0.0076190305
 F  0.2567310398  0.3860189172 -0.0169700258
2
step 209
 H -0.5086567523 -0.1699530843  0.0074714167
 F  0.2540239003  0.3871215076 -0.0170184975
2
step 210
 H -0.5071384240 -0.1676870047  0.0073717962
 F  0.2513981472  0.3882812016 -0.0170694796
2
step 211
 H -0.5077050140 -0.1669442984  0.0073391456
 F  0.2488838450  0.3895213063 -0.0171239966
2
step 212
 H -0.5105528077 -0.1678570133  0.0073792700
 F  0.2464905691  0.3908492499 -0.0171823752
2
step 213
 H -0.5154324552 -0.1702406585  0.0074840590
 F  0.2442042611  0.3922556601 -0.0172442033
2
step 214
 H -0.5217036059 -0.1736478363  0.0076338441
 F  0.2419901718  0.3937171878 -0.0173084545
2
step 215
 H -0.5284993883 -0.1774366287  0.0078004057
 F  0.2398015963  0.3952001311 -0.0173736471
2
step 216
 H -0.5348939182 -0.1809173306  0.0079534230
 F  0.2375887285  0.3966682375 -0.0174381875
2
step 217
 H -0.5400661102 -0.1834750395  0.0080658641
 F  0.2353073005  0.3980892349 -0.0175006568
2
step 218
 H -0.5434237639 -0.1846636997  0.0081181196
 F  0.2329251298  0.3994398391 -0.0175600316
2
step 219
 H -0.5446883531 -0.1842537488  0.0081000975
 F  0.2304266188  0.4007082820 -0.0176157944
2
step 220
 H -0.5439172116 -0.1822776762  0.0080132261
 F  0.2278139678  0.4018967109 -0.0176680397
2
step 221
 H -0.5414879741 -0.1790381445  0.0078708109
 F  0.2251063949  0.4030215961 -0.0177174915
2
step 222
 H -0.5380782289 -0.1750437433  0.0076952105
 F  0.2223390838  0.4041103085 -0.0177653531
2
step 223
 H -0.5345612643 -0.1709558636  0.0075155006
 F  0.2195576402  0.4051983073 -0.0178131833
2
step 224
 H -0.5318668613 -0.1674840293  0.0073628730
 F  0.2168106591  0.4063236094 -0.0178626535
2
step 225
 H -0.5308081593 -0.1652536673  0.0072648227
 F  0.2141404855  0.4075198005 -0.0179152400
2
step 226
 H -0.5319091067 -0.1646731821  0.0072393036
 F  0.2115740346  0.4088089946 -0.0179719151
2
step 227
 H -0.5352930138 -0.1658258923  0.0072899786
 F  0.2091168996  0.4101960899 -0.0180328941
2
step 228
 H -0.5406386573 -0.1684624792  0.0074058873
 F  0.2067510733  0.4116683426 -0.0180976167
2
step 229
 H -0.5472511280 -0.1720678144  0.0075643837
 F  0.2044387486  0.4131988919 -0.0181649022
2
step 230
 H -0.5542342033 -0.1759459661  0.0077348737
 F  0.2021314643  0.4147512701 -0.0182331473
2
step 231
 H -0.5606609187 -0.1793728482  0.0078855250
 F  0.1997791101  0.4162875248 -0.0183006836
2
step 232
 H -0.5657327122 -0.1817213720  0.0079887700
 F  0.1973383090  0.4177748900 -0.0183660706
2
step 233
 H -0.5688966090 -0.1825547508  0.0080254067
 F  0.1947785944  0.4191907571 -0.0184283144
2
step 234
 H -0.5699239285 -0.1816723706  0.0079866158
 F  0.1920865869  0.4205251086 -0.0184869747
2
step 235
 H -0.5689277341 -0.1791521429  0.0078758225
 F  0.1892669568  0.4217827465 -0.0185422625
2
step 236
 H -0.5663435029 -0.1753544407  0.0077088692
 F  0.1863414433  0.4229834787 -0.0185950487
2
step 237
 H -0.5629034814 -0.1708553336  0.0075110811
 F  0.1833475121  0.4241585673 -0.0186467075
2
step 238
 H -0.5595251575 -0.1663825265  0.0073144492
 F  0.1803324080  0.4253473451 -0.0186989681
2
step 239
 H -0.5571626123 -0.1626981818  0.0071524793
 F  0.1773451980  0.4265910328 -0.0187536427
2
step 240
 H -0.5566240358 -0.1604529498  0.0070537752
 F  0.1744270134  0.4279250327 -0.0188122875
2
step 241
 H -0.5583949793 -0.1600433870  0.0070357702
 F  0.1716016308  0.4293713842 -0.0188758715
2
step 242
 H -0.5625326539 -0.1615028274  0.0070999296
 F  0.1688698761  0.4309329670 -0.0189445213
2
step 243
 H -0.5686249451 -0.1645189104  0.0072325215
 F  0.1662074930  0.4325944098 -0.0190175610
2
step 244
 H -0.5759103555 -0.1684737854  0.0074063843
 F  0.1635715300  0.4343242118 -0.0190936060
2
step 245
 H -0.5834358479 -0.1725903478  0.0075873552
 F  0.1609086802  0.4360825193 -0.0191709040
2
step 246
 H -0.5902422511 -0.1760822646  0.0077408656
 F  0.1581650250  0.4378291330 -0.0192476880
2
step 247
 H -0.5955238499 -0.1782847457  0.0078376903
 F  0.1552943848  0.4395305052 -0.0193224832
2
step 248
 H -0.5987417976 -0.1787494939  0.0078581214
 F  0.1522642445  0.4411648236 -0.0193943305
2
step 249
 H -0.5997008582 -0.1772897689  0.0077939494
 F  0.1490597842  0.4427244234 -0.0194628931
2
step 250
 H -0.5985642319 -0.1740244739  0.0076504017
 F  0.1456846694  0.4442181248 -0.0195285586
2
step 251
 H -0.5958336222 -0.1693830801  0.0074463584
 F  0.1421600050  0.4456714879 -0.0195924509
2
step 252
 H -0.5923255448 -0.1640361563  0.0072112989
 F  0.1385230525  0.4471231400 -0.0196562679
2
step 253
 H -0.5890533914 -0.1588233379  0.0069821348
 F  0.1348208809  0.4486209997 -0.0197221162
2
step 254
 H -0.5870653209 -0.1546196158  0.0067973323
 F  0.1311016178  0.4502152572 -0.0197922024
2
step 255
 H -0.5872405554 -0.1521645206  0.0066894022
 F  0.1274034946  0.4519493839 -0.0198684375
2
step 256
 H -0.5900903340 -0.1518933179  0.0066774797
 F  0.1237442150  0.4538512125 -0.0199520450
2
step 257
 H -0.5956415158 -0.1538076763  0.0067616381
 F  0.1201148273  0.4559260497 -0.0200432582
2
step 258
 H -0.6033927735 -0.1575005708  0.0069239838
 F  0.1164775455  0.4581579249 -0.0201413751
2
step 259
 H -0.6124575792 -0.1622091097  0.0071309789
 F  0.1127735069  0.4605123072 -0.0202448777
2
step 260
 H -0.6217446396 -0.1669889319  0.0073411077
 F  0.1089324760  0.4629452925 -0.0203518357
2
step 261
 H -0.6301633778 -0.1708893743  0.0075125776
 F  0.1048838408  0.4654128512 -0.0204603136
2
step 262
 H -0.6367975741 -0.1731039668  0.0076099347
 F  0.1005659517  0.4678787491 -0.0205687185
2
step 263
 H -0.6410297602 -0.1730811790  0.0076089329
 F  0.0959329814  0.4703202936 -0.0206760528
2
step 264
 H -0.6426362667 -0.1705808760  0.0074990155
 F  0.0909604221  0.4727310999 -0.0207820359
2
step 265
 H -0.6417946136 -0.1657646500  0.0072872863
 F  0.0856461088  0.4751255673 -0.0208873006
2
step 266
 H -0.6391319272 -0.1591642063  0.0069971199
 F  0.0800134865  0.4775368500 -0.0209933045
2
step 267
 H -0.6356705474 -0.1516682515  0.0066675854
 F  0.0741093214  0.4800158614 -0.0211022859
2
step 268
 H -0.6327086851 -0.1444235345  0.0063490958
 F  0.0679977228  0.4826258453 -0.0212170251
2
step 269
 H -0.6316036216 -0.1386560959  0.0060955497
 F  0.0617487231  0.4854328504 -0.0213404257
2
step 270
 H -0.6334852782 -0.1353851743  0.0059517546
 F  0.0554230335  0.4884905735 -0.0214748482
2
step 271
 H -0.6389546175 -0.1351778806  0.0059426416
 F  0.0490560720  0.4918273285 -0.0216215374
2
step 272
 H -0.6479049937 -0.1379623701  0.0060650524
 F  0.0426486822  0.4954360336 -0.0217801820
2
step 273
 H -0.6595380685 -0.1430282162  0.0062877553
 F  0.0361681870  0.4992741263 -0.0219489109
2
step 274
 H -0.6725566545 -0.1492089393  0.0065594700
 F  0.0295585435  0.5032732867 -0.0221247206
2
step 275
 H -0.6854835691 -0.1551497837  0.0068206393
 F  0.0227567326  0.5073539108 -0.0223041115
2
step 276
 H -0.6969440618 -0.1595763645  0.0070152391
 F  0.0157068946  0.5114397918 -0.0224837336
2
step 277
 H -0.7058783632 -0.1614959417  0.0070996268
 F  0.0083707707  0.5154692196 -0.0226608738
2
step 278
 H -0.7116744694 -0.1603208250  0.0070479668
 F  0.0007342289  0.5194017896 -0.0228337561
2
step 279
 H -0.7142161611 -0.1559376450  0.0068552750
 F -0.0071903104  0.5232221397 -0.0230017049
2
step 280
 H -0.7139083584 -0.1487284209  0.0065383456
 F -0.0153624081  0.5269410072 -0.0231651924
2
step 281
 H -0.7116461074 -0.1395619575  0.0061353728
 F -0.0237151790  0.5305947356 -0.0233258164
2
step 282
 H -0.7087267369 -0.1297041839  0.0057020089
 F -0.0321601849  0.5342406343 -0.0234860960
2
step 283
 H -0.7066674477 -0.1206552618  0.0053042034
 F -0.0405976998  0.5379486308 -0.0236491057
2
step 284
 H -0.7069238610 -0.1138765943  0.0050062021
 F -0.0489323623  0.5417871479 -0.0238178532
2
step 285
 H -0.7105505366 -0.1104519322  0.0048556483
 F -0.0570916411  0.5458053507 -0.0239945000
2
step 286
 H -0.7179160555 -0.1107852847  0.0048703030
 F -0.0650408707  0.5500170769 -0.0241796544
2
step 287
 H -0.7285955703 -0.1144880373  0.0050330821
 F -0.0727884472  0.5543945940 -0.0243720972
2
step 288
 H -0.7414937873 -0.1204863589  0.0052967782
 F -0.0803788203  0.5588740546 -0.0245690217
2
step 289
 H -0.7551545824 -0.1273117671  0.0055968343
 F -0.0878760108  0.5633708864 -0.0247667098
2
step 290
 H -0.7680910663 -0.1334422677  0.0058663412
 F -0.0953465056  0.5677980967 -0.0249613372
2
step 291
 H -0.7790516725 -0.1375791079  0.0060482035
 F -0.1028456857  0.5720812321 -0.0251496309
2
step 292
 H -0.7871811981 -0.1388210661  0.0061028020
 F -0.1104095880  0.5761677789 -0.0253292822
2
step 293
 H -0.7920985940 -0.1367478144  0.0060116585
 F -0.1180506683  0.5800315321 -0.0254991392
2
step 294
 H -0.7939008895 -0.1314485270  0.0057786931
 F -0.1257571655  0.5836738976 -0.0256592635
2
step 295
 H -0.7931506011 -0.1235067929  0.0054295614
 F -0.1334932872  0.5871228492 -0.0258108851
2
step 296
 H -0.7908137861 -0.1139572420  0.0050097475
 F -0.1412022292  0.5904304931 -0.0259562946
2
step 297
 H -0.7881495386 -0.1041574765  0.0045789337
 F -0.1488121239  0.5936663157 -0.0260985466
2
step 298