5
step 0
 C -0.0000184568 -0.0000186040 -0.0000375875
 H  0.5268700020  0.1604388291  0.9324602932
 H  0.2043844409  0.8210075162 -0.6760896568
 H  0.3332915382 -0.9280181592 -0.4479579802
 H -1.0646275244 -0.0535095821  0.1914249314
5
step 1
 C -0.0002632390 -0.0025311662 -0.0031556017
 H  0.5229072484  0.1732918723  0.9441762692
 H  0.2101808466  0.8184817264 -0.6794303049
 H  0.3411898580 -0.9395183007 -0.4453301464
 H -1.0741147140 -0.0498241317  0.1835397838
5
step 2
 C -0.0004992152 -0.0050727730 -0.0062059756
 H  0.5182645129  0.1858551323  0.9547350728
 H  0.2159944034  0.8157924483 -0.6828234800
 H  0.3488438968 -0.9503602462 -0.4422881116
 H -1.0828185619 -0.0461909002  0.1754041764
5
step 3
 C -0.0007190725 -0.0076475540 -0.0091109938
 H  0.5124083289  0.1977569852  0.9630617377
 H  0.2217998526  0.8127935478 -0.6862903548
 H  0.3559738491 -0.9598855237 -0.4384928321
 H -1.0899873948 -0.0426985229  0.1668527364
5
step 4
 C -0.0009185200 -0.0102506561 -0.0118116213
 H  0.5049632156  0.2086654739  0.9683376568
 H  0.2275719798  0.8093418104 -0.6898448680
 H  0.3623463565 -0.9675789086 -0.4336865512
 H -1.0950381621 -0.0394435904  0.1577584105
5
step 5
 C -0.0010955375 -0.0128674433 -0.0142709571
 H  0.4957292479  0.2183116281  0.9700533018
 H  0.2332868939  0.8053025745 -0.6934960387
 H  0.3677934270 -0.9731102428 -0.4277068390
 H -1.0976031615 -0.0365273761  0.1480371836
5
step 6
 C -0.0012496320 -0.0154738709 -0.0164757657
 H  0.4846855882  0.2265078745  0.9680357977
 H  0.2389239019  0.8005570700 -0.6972519451
 H  0.3722253227 -0.9763591466 -0.4204917851
 H -1.0975571384 -0.0340518548  0.1376486161
5
step 7
 C -0.0013814116 -0.0180378758 -0.0184368767
 H  0.4719859167  0.2331629256  0.9624610366
 H  0.2444679247  0.7950107909 -0.7011246948
 H  0.3756379480 -0.9774249943 -0.4120783545
 H -1.0950275041 -0.0321154539  0.1265930143
5
step 8
 C -0.0014925763 -0.0205216781 -0.0201888089
 H  0.4579478665  0.2382936408  0.9538538648
 H  0.2499123072  0.7886020128 -0.7051356323
 H  0.3781148225 -0.9766230737 -0.4025949362
 H -1.0903885617 -0.0308088559  0.1149057594
5
step 9
 C -0.0015862455 -0.0228849005 -0.0217884164
 H  0.4430346919  0.2420324020  0.9430723332
 H  0.2552617985  0.7813094337 -0.7093200480
 H  0.3798228604 -0.9744656270 -0.3922479876
 H -1.0842379748 -0.0302111494  0.1026490859
5
step 10
 C -0.0016673800 -0.0250883388 -0.0233118039
 H  0.4278244529  0.2446261176  0.9312649432
 H  0.2605353711  0.7731578864 -0.7137307220
 H  0.3810004328 -0.9716247456 -0.3813020059
 H -1.0773517982 -0.0303866708  0.0899016594
5
step 11
 C -0.0017429388 -0.0270980400 -0.0248484096
 H  0.4129610892  0.2464210385  0.9197857804
 H  0.2657684425  0.7642211141 -0.7184396987
 H  0.3819361092 -0.9688741122 -0.3700523419
 H -1.0706146992 -0.0313828677  0.0767467681
5
step 12
 C -0.0018214039 -0.0288891349 -0.0264913067
 H  0.3990843769  0.2478277798  0.9100553616
 H  0.2710139469  0.7546207374 -0.7235376890
 H  0.3829375687 -0.9670093342 -0.3587918653
 H -1.0649256728 -0.0332293228  0.0632607013
5
step 13
 C -0.0019115194 -0.0304487862 -0.0283238038
 H  0.3867431105  0.2492652397  0.9033692462
 H  0.2763416246  0.7445207172 -0.7291304135
 H  0.3842925953 -0.9667522536 -0.3477749626
 H -1.0610866158 -0.0359376827  0.0495035826
5
step 14
 C -0.0020205670 -0.0317778107 -0.0304043765
 H  0.3763067679  0.2510910678  0.9006821518
 H  0.2818348949  0.7341168232 -0.7353310786
 H  0.3862273352 -0.9686518489 -0.3371848943
 H -1.0596897221 -0.0395017945  0.0355150050
5
step 15
 C -0.0021529726 -0.0328909570 -0.0327540482
 H  0.3678998919  0.2535365543  0.9024220642
 H  0.2875848356  0.7236209315 -0.7422482579
 H  0.3888697924 -0.9730002171 -0.3271116994
 H -1.0610258997 -0.0438971949  0.0213158474
5
step 16
 C -0.0023100697 -0.0338161388 -0.0353509237
 H  0.3613822282  0.2566678286  0.9083963100
 H  0.2936811905  0.7132406087 -0.7499690601
 H  0.3922271932 -0.9797829878 -0.3175463640
 H -1.0650359889 -0.0490794981  0.0069157868
5
step 17
 C -0.0024911943 -0.0345928370 -0.0381344919
 H  0.3563828259  0.2603872321  0.9178253067
 H  0.3002010086  0.7031556062 -0.7585388078
 H  0.3961832875 -0.9886772479 -0.3083928191
 H -1.0713176379 -0.0549821005 -0.0076759250
5
step 18
 C -0.0026953954 -0.0352695572 -0.0410184152
 H  0.3523754607  0.2644720559  0.9294907272
 H  0.3071963749  0.6934944476 -0.7679402340
 H  0.4005164614 -0.9990981167 -0.2994941485
 H -1.0791861043 -0.0615144461 -0.0224398495
5
step 19
 C -0.0029226879 -0.0359001817 -0.0439073748
 H  0.3487695228  0.2686338199  0.9419448765
 H  0.3146834309  0.6843155741 -0.7780766378
 H  0.4049339240 -1.0102824767 -0.2906656729
 H -1.0877734375 -0.0685622866 -0.0373389040
5
step 20
 C -0.0031741955 -0.0365394761 -0.0467129934
 H  0.3449917905  0.2725783206  0.9537202442
 H  0.3226351019  0.6755975829 -0.7887636404
 H  0.4091137504 -1.0213906298 -0.2817269509
 H -1.0961434063 -0.0759907855 -0.0523155809
5
step 21
 C -0.0034512824 -0.0372385082 -0.0493655633
 H  0.3405455795  0.2760533684  0.9634981895
 H  0.3309794181  0.6672415052 -0.7997327670
 H  0.4127464026 -1.0316063998 -0.2725269540
 H -1.1034009687 -0.0836503383 -0.0672937695
5
step 22
 C -0.0037542532 -0.0380408557 -0.0518206409
 H  0.3350454933  0.2788803526  0.9702234666
 H  0.3396041558  0.6590852739 -0.8106475236
 H  0.4155698167 -1.0402218766 -0.2629600458
 H -1.1087823511 -0.0913842029 -0.0821840785
5
step 23
 C -0.0040812334 -0.0389801647 -0.0540612572
 H  0.3282329420  0.2809721269  0.9731711365
 H  0.3483671894  0.6509277227 -0.8211299466
 H  0.4173954760 -1.0467006706 -0.2529732248
 H -1.1117203876 -0.0990367783 -0.0968912980
5
step 24
 C -0.0044275947 -0.0400791552 -0.0560971889
 H  0.3199793617  0.2823419738  0.9719802297
 H  0.3571109393  0.6425577425 -0.8307937963
 H  0.4181255273 -1.0507196952 -0.2425665257
 H -1.1118861324 -0.1064615780 -0.1113229052
5
step 25
 C -0.0047860063 -0.0413498431 -0.0579626431
 H  0.3102825834  0.2831077474  0.9666671962
 H  0.3656789107  0.6337840074 -0.8392800724
 H  0.4177622252 -1.0521924497 -0.2317886161
 H -1.1092105152 -0.1135283367 -0.1253979328
5
step 26
 C -0.0051470042 -0.0427946492 -0.0597131901
 H  0.2992589908  0.2834931784  0.9576258699
 H  0.3739324827  0.6244616191 -0.8462911090
 H  0.4164108736 -1.0512766283 -0.2207290095
 H -1.1038893382 -0.1201289982 -0.1390557788
5
step 27
 C -0.0054998817 -0.0444081396 -0.0614220688
 H  0.2871311538  0.2838256477  0.9456123826
 H  0.3817665399  0.6145133573 -0.8516205201
 H  0.4142764720 -1.0483667188 -0.2095075346
 H -1.0963724801 -0.1261823992 -0.1522644733
5
step 28
 C -0.0058336842 -0.0461792506 -0.0631753183
 H  0.2742082914  0.2845270036  0.9317053515
 H  0.3891229388  0.6039443613 -0.8551771125
 H  0.4116530694 -1.0440694877 -0.1982611912
 H -1.0873352768 -0.1316373047 -0.1650275348
5
step 29
 C -0.0061381091 -0.0480938756 -0.0650647215
 H  0.2608559648  0.2860917866  0.9172262520
 H  0.3960009534  0.5928496810 -0.8570012153
 H  0.4089040313 -1.0391583839 -0.1871285627
 H -1.0776282275 -0.1364732024 -0.1773879831
5
step 30
 C -0.0064041886 -0.0501376070 -0.0671776254
 H  0.2474528756  0.2890466965  0.9036061498
 H  0.4024637139  0.5814142559 -0.8572717167
 H  0.4064316306 -1.0345033873 -0.1762326294
 H -1.0682017802 -0.1406981363 -0.1894276519
5
step 31
 C -0.0066247974 -0.0522982744 -0.0695836464
 H  0.2343373397  0.2938881242  0.8921975414
 H  0.4086393076  0.5699046294 -0.8563016382
 H  0.4046360397 -1.0309767486 -0.1656639845
 H -1.0600069552 -0.1443431262 -0.2012600838
5
step 32
 C -0.0067952536 -0.0545678592 -0.0723202094
 H  0.2217531859  0.3010024902  0.8840551658
 H  0.4147148150  0.5586513537 -0.8545196876
 H  0.4038669407 -1.0293424435 -0.1554676090
 H -1.0538798209 -0.1474534944 -0.2130163885
5
step 33
 C -0.0069143559 -0.0569434713 -0.0753810581
 H  0.2098107175  0.3105854234  0.8797383197
 H  0.4209214144  0.5480209439 -0.8524354442
 H  0.4043748046 -1.0301460468 -0.1456367524
 H -1.0504264791 -0.1500785758 -0.2248255098
5
step 34
 C -0.0069858867 -0.0594272457 -0.0787126692
 H  0.1984773474  0.3225840224  0.8791991326
 H  0.4275092722  0.5383770430 -0.8505874629
 H  0.4062717194 -1.0336280309 -0.1361163692
 H -1.0499314413 -0.1522623066 -0.2367927229
5
step 35
 C -0.0070199350 -0.0620250703 -0.0822214698
 H  0.1876022082  0.3366834754  0.8817990379
 H  0.4347128111  0.5300328267 -0.8494773623
 H  0.4095114555 -1.0396825067 -0.1268159398
 H -1.0523116800 -0.1540373960 -0.2489816283
5
step 36
 C -0.0070329408 -0.0647440510 -0.0857904850
 H  0.1769648941  0.3523438317  0.8864464322
 H  0.4427102366  0.5232005735 -0.8494986224
 H  0.4138943045 -1.0478731856 -0.1176283745
 H -1.0571291023 -0.1554247945 -0.2614043513
5
step 37
 C -0.0070457213 -0.0675888713 -0.0893002219
 H  0.1663302058  0.3688740075  0.8918039511
 H  0.4515849519  0.5179483148 -0.8508741980
 H  0.4190954579 -1.0575023471 -0.1084497264
 H -1.0636585615 -0.1564383242 -0.2740221044
5
step 38
 C -0.0070798005 -0.0705577862 -0.0926476140
 H  0.1554929007  0.3855201152  0.8965011573
 H  0.4612985933  0.5141748677 -0.8536185907
 H  0.4247094624 -1.0677144341 -0.0991947244
 H -1.0709938751 -0.1570926043 -0.2867550605
5
step 39
 C -0.0071532978 -0.0736394427 -0.0957587717
 H  0.1443050402  0.4015476332  0.8993069586
 H  0.4716838679  0.5116113138 -0.8575352417
 H  0.4303004708 -1.0776100456 -0.0898053108
 H -1.0781673567 -0.1574116470 -0.2994982228
5
step 40
 C -0.0072777590 -0.0768115637 -0.0985943612
 H  0.1326866813  0.4163063904  0.8992452689
 H  0.4824600996  0.5098497802 -0.8622502019
 H  0.4354491778 -1.0863495605 -0.0802520137
 H -1.0842608649 -0.1574359068 -0.3121394595
5
step 41
 C -0.0074566956 -0.0800418334 -0.1011489126
 H  0.1206247366  0.4292766042  0.8956593918
 H  0.4932678248  0.5083926715 -0.8672727943
 H  0.4397909095 -1.0932344105 -0.0705298051
 H -1.0884948450 -0.1572266295 -0.3245767429
5
step 42
 C -0.0076857884 -0.0832905910 -0.1034464618
 H  0.1081651572  0.4400995873  0.8882398931
 H  0.5037142368  0.5067111098 -0.8720683687
 H  0.4430431279 -1.0977629113 -0.0606506747
 H -1.0902910651 -0.1568673831 -0.3367330008
5
step 43
 C -0.0079541996 -0.0865145581 -0.1055347888
 H  0.0954020441  0.4485980556  0.8770302489
 H  0.5134204983  0.5043016832 -0.8761289350
 H  0.4450231376 -1.0996632910 -0.0506348263
 H -1.0893110703 -0.1564632813 -0.3485681142
5
step 44
 C -0.0082463549 -0.0896708605 -0.1074796718
 H  0.0824654085  0.4547894203  0.8624189892
 H  0.5220642631  0.5007342503 -0.8790323899
 H  0.4456576823 -1.0989083965 -0.0405017407
 H -1.0854747471 -0.1561385638 -0.3600881308
5
step 45
 C -0.0085437528 -0.0927208109 -0.1093595508
 H  0.0695078684  0.4588921904  0.8451197191
 H  0.5294141256  0.4956878726 -0.8804867367
 H  0.4449856822 -1.0957154182 -0.0302618060
 H -1.0789625324 -0.1560330563 -0.3713516859
5
step 46
 C -0.0088266535 -0.0956330893 -0.1112601439
 H  0.0566898967  0.4613215483  0.8261333187
 H  0.5353553602  0.4889749817 -0.8803596181
 H  0.4431541906 -1.0905312680 -0.0199090035
 H -1.0702021638 -0.1562977867 -0.3824730861
5
step 47
 C -0.0090757368 -0.0983859828 -0.1132680587
 H  0.0441634474  0.4626663997  0.8066815920
 H  0.5399074156  0.4805550080 -0.8786948737
 H  0.4404063830 -1.0840014487 -0.0094153200
 H -1.0598379917 -0.1570898203 -0.3936207428
5
step 48
 C -0.0092739703 -0.1009682993 -0.1154624628
 H  0.0320548817  0.4636386772  0.7881012542
 H  0.5432332949  0.4705382602 -0.8757171845
 H  0.4370596990 -1.0769187473  0.0012719800
 H -1.0486792192 -0.1585662613 -0.4050090018
5
step 49
 C -0.0094089220 -0.1033786517 -0.1179045821
 H  0.0204497957  0.4649891668  0.7716945826
 H  0.5456396796  0.4591795798 -0.8718240733
 H  0.4334727798 -1.0701491148  0.0122285831
 H -1.0376243147 -0.1608773331 -0.4168813370
5
step 50
 C -0.0094755654 -0.1056231975 -0.1206262581
 H  0.0093837388  0.4673948150  0.7585498707
 H  0.5475650519  0.4468599302 -0.8675625116
 H  0.4300020109 -1.0645364743  0.0235451128
 H -1.0275630898 -0.1641584944 -0.4294838780
5
step 51
 C -0.0094791832 -0.1077125591 -0.1236205906
 H -0.0011574152  0.4713385180  0.7493665879
 H  0.5495518459  0.4340533067 -0.8635860636
 H  0.4269521363 -1.0607955904  0.0353119253
 H -1.0192652960 -0.1685216752 -0.4430306110
5
step 52
 C -0.0094374030 -0.1096590965 -0.1268387142
 H -0.0112264057  0.4770152982  0.7443342044
 H  0.5521988246  0.4212770578 -0.8605891539
 H  0.4245294125 -1.0594103286  0.0475977710
 H -1.0132729632 -0.1740460107 -0.4576649999
5
step 53
 C -0.0093800241 -0.1114754017 -0.1301957422
 H -0.0208960969  0.4842969550  0.7431055827
 H  0.5560928111  0.4090269271 -0.8592191979
 H  0.4228080131 -1.0605594728  0.0604261758
 H -1.0098190219 -0.1807689378 -0.4734259091
5
step 54
 C -0.0093456184 -0.1131739263 -0.1335857008
 H -0.0302400016  0.4927671533  0.7448741244
 H  0.5617254610  0.3977042375 -0.8599756337
 H  0.4217187826 -1.0640894617  0.0737556772
 H -1.0087926942 -0.1886790618 -0.4902266397
5
step 55
 C -0.0093750793 -0.1147669316 -0.1369015134
 H -0.0393180151  0.5018117924  0.7485263423
 H  0.5694096052  0.3875497975 -0.8631150927
 H  0.4210636555 -1.0695419889  0.0874701532
 H -1.0097613041 -0.1977124662 -0.5078533254
5
step 56
 C -0.0095037815 -0.1162661772 -0.1400540984
 H -0.0481703358  0.5107328299  0.7528213553
 H  0.5792161886  0.3786027409 -0.8685880860
 H  0.4205515070 -1.0762288595  0.1013827981
 H -1.0120425185 -0.2077537825 -0.5259836139
5
step 57
 C -0.0097548160 -0.1176825724 -0.1429855117
 H -0.0568188802  0.5188550715  0.7565538396
 H  0.5909512076  0.3706980213 -0.8760281992
 H  0.4198456809 -1.0833344687  0.1152530400
 H -1.0148080297 -0.2186423900 -0.5442210333
5
step 58
 C -0.0101352642 -0.1190264135 -0.1456739821
 H -0.0652734765  0.5256084179  0.7586768341
 H  0.6041806275  0.3635039454 -0.8847991759
 H  0.4186123229 -1.0900229974  0.1288121475
 H -1.0171950954 -0.2301829689 -0.5621372967
5
step 59
 C -0.0106360468 -0.1203084757 -0.1481318036
 H -0.0735400205  0.5305818249  0.7583805093
 H  0.6182955198  0.3565875464 -0.8940862609
 H  0.4165614176 -1.0955324305  0.1417919725
 H -1.0184064457 -0.2421588268 -0.5793148719
5
step 60
 C -0.0112345165 -0.1215416242 -0.1503988615
 H -0.0816286878  0.5335535509  0.7551345364
 H  0.6325985576  0.3494886494 -0.9030065612
 H  0.4134767287 -1.0992462264  0.1539521837
 H -1.0177877072 -0.2543462323 -0.5953844534
5
step 61
 C -0.0118983552 -0.1227423167 -0.1525347012
 H -0.0895613019  0.5345046278  0.7487047705
 H  0.6463915833  0.3417857353 -0.9107138667
 H  0.4092344596 -1.1007412463  0.1651033003
 H -1.0148798630 -0.2665283344 -0.6100548840
5
step 62
 C -0.0125895452 -0.1239314872 -0.1546110457
 H -0.0973775645  0.5336209699  0.7391526420
 H  0.6590503551  0.3331444930 -0.9164827732
 H  0.4038123681 -1.0998150191  0.1751246695
 H -1.0094495467 -0.2785078317 -0.6231353211
5
step 63
 C -0.0132677822 -0.1251345698 -0.1567053723
 H -0.1051399790  0.5312861555  0.7268208400
 H  0.6700812317  0.3233477822 -0.9197678597
 H  0.3972913551 -1.0964964123  0.1839775515
 H -1.0015016520 -0.2901180568 -0.6345504828
5
step 64
 C -0.0138932888 -0.1263806084 -0.1588951404
 H -0.1129369927  0.5280630791  0.7123035963
 H  0.6791609889  0.3123103606 -0.9202409882
 H  0.3898507536 -1.0910423117  0.1917135386
 H -0.9912776819 -0.3012323261 -0.6443496478
5
step 65
 C -0.0144293652 -0.1277004744 -0.1612517550
 H -0.1208832897  0.5246594912  0.6963957747
 H  0.6861635672  0.3000828551 -0.9178121842
 H  0.3817573498 -1.0839202872  0.1984778399
 H -0.9792407481 -0.3117711926 -0.6527090446
5
step 66
 C -0.0148451499 -0.1291242700 -0.1638334119
 H -0.1291155469  0.5218713664  0.6800140230
 H  0.6911768383  0.2868482726 -0.9126381628
 H  0.3733471885 -1.0757747756  0.2045059008
 H -0.9660454531 -0.3217066919 -0.6599258684
5
step 67
 C -0.0151189555 -0.1306781709 -0.1666766354
 H -0.1377817775  0.5205008404  0.6640876946
 H  0.6945096316  0.2729121930 -0.9051191081
 H  0.3649989936 -1.0673733401  0.2101109671
 H -0.9524892657 -0.3310620381 -0.6664010705
5
step 68
 C -0.0152421773 -0.1323813000 -0.1697875445
 H -0.1470232823  0.5212533241  0.6494281229
 H  0.6966853941  0.2586855671 -0.8958802827
 H  0.3570989943 -1.0595312364  0.2156601987
 H -0.9394425506 -0.3399049133 -0.6726080674
5
step 69
 C -0.0152231393 -0.1342435741 -0.1731353350
 H -0.1569506041  0.5246299329  0.6365993669
 H  0.6984150357  0.2446573619 -0.8857317271
 H  0.3499992144 -1.0530174838  0.2215384615
 H -0.9277580076 -0.3483330279 -0.6790463601
5
step 70
 C -0.0150894834 -0.1362654459 -0.1766513284
 H -0.1676181872  0.5308409953  0.6258237560
 H  0.7005393745  0.2313538548 -0.8755984041
 H  0.3439743915 -1.0484532168  0.2281022095
 H -0.9181669787 -0.3564523771 -0.6861830531
5
step 71
 C -0.0148872427 -0.1384397683 -0.1802362334
 H -0.1790048628  0.5397664146  0.6169519263
 H  0.7039339000  0.2192832410 -0.8664170412
 H  0.3391853960 -1.0462205394  0.2356302266
 H -0.9111782127 -0.3643513968 -0.6943905880
5
step 72
 C -0.0146751775 -0.1407548893 -0.1837756564
 H -0.1910066877  0.5509756101  0.6095072527
 H  0.7093783946  0.2088693055 -0.8590066255
 H  0.3356575389 -1.0464029859  0.2442814845
 H -0.9070004141 -0.3720769363 -0.7038933352
5
step 73
 C -0.0145146188 -0.1431974098 -0.1871603920
 H -0.2034447351  0.5637996380  0.6027886080
 H  0.7174113554  0.2003854930 -0.8539354201
 H  0.3332793491 -1.0487734466  0.2540705851
 H -0.9055086014 -0.3796188869 -0.7147360523
5
step 74
 C -0.0144573652 -0.1457535060 -0.1903056236
 H -0.2160853628  0.5774327018  0.5959986113
 H  0.7282068171  0.1939068062 -0.8514203466
 H  0.3318219429 -1.0528327984  0.2648671080
 H -0.9062641567 -0.3869082862 -0.7267821666
5
step 75
 C -0.0145356177 -0.1484089282 -0.1931634763
 H -0.2286672032  0.5910372105  0.5883646459
 H  0.7415153165  0.1892958446 -0.8512927469
 H  0.3309735682 -1.0578882419  0.2764183225
 H -0.9085832110 -0.3938293900 -0.7397412980
5
step 76
 C -0.0147572279 -0.1511486375 -0.1957263124
 H -0.2409288975  0.6038339746  0.5792322377
 H  0.7566923586  0.1862287464 -0.8530432985
 H  0.3303808991 -1.0631514657  0.2883885863
 H -0.9116352728 -0.4002418287 -0.7532176706
5
step 77
 C -0.0151070203 -0.1539569152 -0.1980219097
 H -0.2526334905  0.6151697559  0.5681248375
 H  0.7728048045  0.1842522198 -0.8559291261
 H  0.3296890475 -1.0678362990  0.3004060261
 H -0.9145495311 -0.4060067347 -0.7667675354
5
step 78
 C -0.0155524134 -0.1568181037 -0.2001040487
 H -0.2635877170  0.6245623848  0.5547737571
 H  0.7887790755  0.1828534544 -0.8591068624
 H  0.3285749041 -1.0712414106  0.3121080364
 H -0.9165102259 -0.4110111850 -0.7799548857
5
step 79
 C -0.0160505597 -0.1597176297 -0.2020421795
 H -0.2736560408  0.6317272956  0.5391256842
 H  0.8035498415  0.1815251840 -0.8617562094
 H  0.3267715613 -1.0728114629  0.3231801354
 H -0.9168307350 -0.4151874478 -0.7923986105
5
step 80
 C -0.0165548194 -0.1626428655 -0.2039124632
 H -0.2827699768  0.6365895640  0.5213346506
 H  0.8161811924  0.1798155698 -0.8631734450
 H  0.3240839506 -1.0721764414  0.3333859176
 H -0.9150039821 -0.4185258853 -0.8038083861
5
step 81
 C -0.0170196469 -0.1655835431 -0.2057908387
 H -0.2909331291  0.6392838448  0.5017428047
 H  0.8259510912  0.1773608522 -0.8628309081
 H  0.3203970242 -1.0691722473  0.3425880698
 H -0.9107318035 -0.4210819709 -0.8140095197
5
step 82
 C -0.0174040363 -0.1685315862 -0.2077476578
 H -0.2982217783  0.6401421268  0.4808514070
 H  0.8324035182  0.1739039501 -0.8604088168
 H  0.3156779490 -1.0638461946  0.3507613005
 H -0.9039375743 -0.4229784692 -0.8229581552
5
step 83
 C -0.0176742171 -0.1714803210 -0.2098430199
 H -0.3047800707  0.6396668678  0.4592812193
 H  0.8353779825  0.1693037589 -0.8558086969
 H  0.3099732278 -1.0564496807  0.3579977066
 H -0.8947654366 -0.4244035862 -0.8307479224
5
step 84
 C -0.0178063541 -0.1744230966 -0.2121220844
 H -0.3108082882  0.6384859383  0.4377207712
 H  0.8350247449  0.1635389290 -0.8491556246
 H  0.3034008348 -1.0474181083  0.3645039857
 H -0.8835671130 -0.4256052270 -0.8376078087
5
step 85
 C -0.0177897290 -0.1773514859 -0.2146101621
 H -0.3165428825  0.6372871619  0.4168625895
 H  0.8318090723  0.1567076797 -0.8407921333
 H  0.2961368185 -1.0373362970  0.3705886086
 H -0.8708747718 -0.4268807924 -0.8438894255
5
step 86
 C -0.0176303275 -0.1802534675 -0.2173081463
 H -0.3222284144  0.6367349970  0.3973314826
 H  0.8265013473  0.1490225653 -0.8312617618
 H  0.2883957998 -1.0268872434  0.3766363578
 H -0.8573569491 -0.4285615631 -0.8500407632
5
step 87
 C -0.0173540115 -0.1831122106 -0.2201896557
 H -0.3280842724  0.6373794536  0.3796142586
 H  0.8201434989  0.1407966448 -0.8212760016
 H  0.2804056974 -1.0167840844  0.3830683651
 H -0.8437552545 -0.4309909583 -0.8565638540
5
step 88
 C -0.0170076851 -0.1859060739 -0.2232017761
 H -0.3342721304  0.6395746334  0.3640042120
 H  0.8139780278  0.1324159616 -0.8116561665
 H  0.2723788415 -1.0076896912  0.3902885839
 H -0.8308032569 -0.4344969948 -0.8639562955
5
step 89
 C -0.0166564902 -0.1886100230 -0.2262710593
 H -0.3408717772  0.6434266229  0.3505732634
 H  0.8093273076  0.1242939864 -0.8032436841
 H  0.2644838276 -1.0001343829  0.3986223468
 H -0.8191353243 -0.4393610347 -0.8726414333
5
step 90
 C -0.0163756643 -0.1911979923 -0.2293151069
 H -0.3478716453  0.6487845478  0.3391785000
 H  0.8074223076  0.1168084153 -0.7967810705
 H  0.2568238757 -0.9944470493  0.4082577329
 H -0.8092002521 -0.4457869217 -0.8828979425
5
step 91
 C -0.0162375992 -0.1936453136 -0.2322578275
 H -0.3551761622  0.6552760582  0.3295002680
 H  0.8092029290  0.1102298409 -0.7927815612
 H  0.2494268773 -0.9907151788  0.4192031294
 H -0.8011984779 -0.4538759553 -0.8948037921
5
step 92
 C -0.0162972818 -0.1959306350 -0.2350442931
 H -0.3626269986  0.6623756607  0.3211006519
 H  0.8151386491  0.1046616704 -0.7914215947
 H  0.2422494434 -0.9887832472  0.4312722131
 H -0.7950589155 -0.4636129283 -0.9082090040
5
step 93
 C -0.0165809799 -0.1980374817 -0.2376505371
 H -0.3700319782  0.6694875930  0.3134879929
 H  0.8251289519  0.1000133968 -0.7924941337
 H  0.2351932456 -0.9882886794  0.4441006817
 H -0.7904614989 -0.4748663671 -0.9227451590
5
step 94
 C -0.0170821082 -0.1999559539 -0.2400854661
 H -0.3771950381  0.6760261218  0.3061754191
 H  0.8385218230  0.0960191537 -0.7954429974
 H  0.2281287546 -0.9887249898  0.4571905060
 H -0.7868986077 -0.4874028848 -0.9378696687
5
step 95
 C -0.0177649325 -0.2016846393 -0.2423853698
 H -0.3839424510  0.6814821890  0.2987265537
 H  0.8542427361  0.0922947761 -0.7994665111
 H  0.2209204886 -0.9895169458  0.4699712234
 H -0.7837589034 -0.5009125240 -0.9529340389
5
step 96
 C -0.0185734719 -0.2032321874 -0.2446041601
 H -0.3901429509  0.6854718757  0.2907865334
 H  0.8709861474  0.0884121199 -0.8036539889
 H  0.2134489997 -0.9900935684  0.4818659931
 H -0.7804146469 -0.5150402417 -0.9672613341
5
step 97
 C -0.0194417713 -0.2046178290 -0.2468029986
 H -0.3957212398  0.6877665962  0.2820995457
 H  0.8874111575  0.0839679855 -0.8071155421
 H  0.2056269855 -0.9899493696  0.4923522601
 H -0.7762976662 -0.5294186047 -0.9802194179
5
step 98
 C -0.0203027041 -0.2058704910 -0.2490417385
 H -0.4006652648  0.6883069143  0.2725152357
 H  0.9023008079  0.0786340717 -0.8090805887
 H  0.1974089518 -0.9886895770  0.5010109353
 H -0.7709562478 -0.5436979180 -0.9912812878
5
step 99
 C -0.0210942607 -0.2070266117 -0.2513729105
 H -0.4050278304  0.6872021055  0.2619862246
 H  0.9146712299  0.0721853967 -0.8089591712
 H  0.1887951459 -0.9860592254  0.5075619787
 H -0.7640917244 -0.5575716795 -1.0000691799
5
step 100
 C -0.0217636569 -0.2081270062 -0.2538378149
 H -0.4089228768  0.6847168991  0.2505583294
 H  0.9238365070  0.0645115562 -0.8063725633
 H  0.1798309368 -0.9819581503  0.5118869201
 H -0.7555774652 -0.5707967310 -1.0063830161
5
step 101
 C -0.0222701865 -0.2092131482 -0.2564638541
 H -0.4125164002  0.6812459397  0.2383543843
 H  0.9294430191  0.0556171288 -0.8011636502
 H  0.1706026564 -0.9764442185  0.5140397478
 H -0.7454640637 -0.5832082980 -1.0102153890
5
step 102
 C -0.0225877160 -0.2103231947 -0.2592623793
 H -0.4160117952  0.6772760896  0.2255522327
 H  0.9314859067  0.0456162588 -0.7933958039
 H  0.1612304912 -0.9697261569  0.5142469883
 H -0.7339735003 -0.5947301149 -1.0117548201
5
step 103
 C -0.0227073299 -0.2114881195 -0.2622267564
 H -0.4196296611  0.6733373859  0.2123577885
 H  0.9303142526  0.0347239047 -0.7833445772
 H  0.1518586151 -0.9621458778  0.5128963675
 H -0.7214830015 -0.6053791214 -1.0113772591
5
step 104
 C -0.0226400464 -0.2127284628 -0.2653309256
 H -0.4235830318  0.6699456139  0.1989751580
 H  0.9266235527  0.0232436491 -0.7714815820
 H  0.1426426492 -0.9541490963  0.5105120849
 H -0.7084973083 -0.6152631395 -1.0096237650
5
step 105
 C -0.0224188129 -0.2140523702 -0.2685292666
 H -0.4280505006  0.6675426854  0.1855773762
 H  0.9214258789  0.0115499658 -0.7584456751
 H  0.1337348518 -0.9462431038  0.5077144351
 H -0.6956071170 -0.6245690520 -1.0071611888
5
step 106
 C -0.0220983154 -0.2154555879 -0.2717589193
 H -0.4331512998  0.6664440110  0.1722825840
 H  0.9159819461  0.0000619272 -0.7449942968
 H  0.1252681702 -0.9389423663  0.5051631336
 H -0.6834324604 -0.6335390690 -1.0047236136
5
step 107
 C -0.0217508110 -0.2169237627 -0.2749455534
 H -0.4389271979  0.6668028989  0.1591404613
 H  0.9116788360 -0.0107938041 -0.7319292840
 H  0.1173411873 -0.9327061549  0.5034875226
 H -0.6725532715 -0.6424344215 -1.0030360708
5
step 108
 C -0.0214567389 -0.2184367576 -0.2780127193
 H -0.4453352853  0.6685993363  0.1461318723
 H  0.9098477056 -0.0206295497 -0.7199986310
 H  0.1100066126 -0.9278766524  0.5032120189
 H -0.6634348159 -0.6514895028 -1.0027282833
5
step 109
 C -0.0212906826 -0.2199740275 -0.2808933772
 H -0.4522532717  0.6716547085  0.1331813706
 H  0.9115406035 -0.0291460779 -0.7097883675
 H  0.1032657840 -0.9246289560  0.5046895996
 H -0.6563610861 -0.6608641497 -1.0042527363
5
step 110
 C -0.0213059477 -0.2215197642 -0.2835406676
 H -0.4594957304  0.6756674967  0.1201788498
 H  0.9173177154 -0.0361729181 -0.7016317173
 H  0.0970704778 -0.9229440050  0.5080571631
 H -0.6513914204 -0.6706051827 -1.0078246820
5
step 111
 C -0.0215229449 -0.2230666709 -0.2859345342
 H -0.4668372719  0.6802607327  0.1070047011
 H  0.9271150311 -0.0416866421 -0.6955657675
 H  0.0913315243 -0.9226110009  0.5132228135
 H -0.6483520100 -0.6806279587 -1.0133987108
5
step 112
 C -0.0219258018 -0.2246176903 -0.2880821826
 H -0.4740378738  0.6850314424  0.0935530058
 H  0.9402451699 -0.0458006770 -0.6913518194
 H  0.0859320926 -0.9232587942  0.5198875284
 H -0.6468650248 -0.6907237053 -1.0206874108
5
step 113
 C -0.0224680609 -0.2261855143 -0.2900128872
 H -0.4808664304  0.6895947118  0.0797490319
 H  0.9555328804 -0.0487311312 -0.6885503496
 H  0.0807427112 -0.9244088981  0.5275954040
 H -0.6464077027 -0.7005907766 -1.0292162471
5
step 114
 C -0.0230843988 -0.2277901580 -0.2917697021
 H -0.4871201105  0.6936183487  0.0655595359
 H  0.9715343126 -0.0507512896 -0.6866218640
 H  0.0756353037 -0.9255388250  0.5358009506
 H -0.6463867576 -0.7098813854 -1.0384003209
5
step 115
 C -0.0237036815 -0.2294552588 -0.2934010022
 H -0.4926384657  0.6968468280  0.0509961696
 H  0.9867693651 -0.0521481356 -0.6850226186
 H  0.0704943970 -0.9261442405  0.5439403517
 H -0.6462124290 -0.7182526466 -1.0476261796
5
step 116
 C -0.0242597525 -0.2312039362 -0.2949537598
 H -0.4973121087  0.6991148095  0.0361133390
 H  0.9999131607 -0.0531890676 -0.6832760235
 H  0.0652247094 -0.9257912259  0.5514957650
 H -0.6453604875 -0.7254122439 -1.0563249182
5
step 117
 C -0.0246985619 -0.2330549667 -0.2964691111
 H -0.5010862870  0.7003513029  0.0210021963
 H  1.0099247389 -0.0541007222 -0.6810152390
 H  0.0597551792 -0.9241540422  0.5580459321
 H -0.6434165749 -0.7311529385 -1.0640286894
5
step 118
 C -0.0249819901 -0.2350197502 -0.2979798610
 H -0.5039599775  0.7005758819  0.0057823332
 H  1.0161169829 -0.0550577857 -0.6780019972
 H  0.0540400030 -0.9210375508  0.5633006602
 H -0.6401025568 -0.7353742334 -1.0704084530
5
step 119
 C -0.0250894705 -0.2371002582 -0.2995092618
 H -0.5059812932  0.6998884465 -0.0094076154
 H  1.0181837169 -0.0561783666 -0.6741297207
 H  0.0480574184 -0.9163858325  0.5671197618
 H -0.6352876344 -0.7380922551 -1.0752945351
5
step 120
 C -0.0250184682 -0.2392879856 -0.3010704963
 H -0.5072400338  0.6984539958 -0.0244196498
 H  1.0162002200 -0.0575229697 -0.6694178027
 H  0.0418069045 -0.9102793478  0.5695183202
 H -0.6289877044 -0.7394399240 -1.0786829011
5
step 121
 C -0.0247844384 -0.2415638885 -0.3026665599
 H -0.5078581797  0.6964838259 -0.0391058605
 H  1.0106074138 -0.0590953753 -0.6640009939
 H  0.0353053193 -0.9029226106  0.5706599571
 H -0.6213555741 -0.7396591310 -1.0807294946
5
step 122
 C -0.0244203274 -0.2438993222 -0.3042905284
 H -0.5079790919  0.6942145978 -0.0533272994
 H  1.0021819192 -0.0608451937 -0.6581147404
 H  0.0285823649 -0.8946235249  0.5708388681
 H -0.6126631181 -0.7390856529 -1.0817335131
5
step 123
 C -0.0239751593 -0.2462579977 -0.3059264522
 H -0.5077562032  0.6918868860 -0.0669618941
 H  0.9919867236 -0.0626732551 -0.6520748322
 H  0.0216757522 -0.8857649832  0.5704506192
 H -0.6032751935 -0.7381266636 -1.0821090921
5
step 124
 C -0.0235108812 -0.2485988871 -0.3075512550
 H -0.5073420449  0.6897249861 -0.0799109533
 H  0.9812925126 -0.0644420201 -0.6462483764
 H  0.0146265223 -0.8767695393  0.5699518165
 H -0.5936148202 -0.7372305169 -1.0823444532
5
step 125
 C -0.0230966119 -0.2508798109 -0.3091379822
 H -0.5068784709  0.6879197591 -0.0921037771
 H  0.9714603091 -0.0659933733 -0.6410135808
 H  0.0074751050 -0.8680590859  0.5698101390
 H -0.5841201855 -0.7368493070 -1.0829487631
5
step 126
 C -0.0227999715 -0.2530612211 -0.3106604290
 H -0.5064888050  0.6866159132 -0.1035000027
 H  0.9637846460 -0.0671748007 -0.6367088138
 H  0.0002587317 -0.8600131476  0.5704487058
 H -0.5751963835 -0.7373965425 -1.0843898753
5
step 127
 C -0.0226763724 -0.2551095880 -0.3120985913
 H -0.5062723243  0.6859043819 -0.1140895960