5
step 0
 C -0.0000184568 -0.0000186040 -0.0000375875
 H  0.5268700020  0.1604388291  0.9324602932
 H  0.2043844409  0.8210075162 -0.6760896568
 H  0.3332915382 -0.9280181592 -0.4479579802
 H -1.0646275244 -0.0535095821  0.1914249314
5
step 1
 C -0.0002633006 -0.0025317985 -0.0031563863
 H  0.5229062512  0.1732951067  0.9441792175
 H  0.2101823052  0.8184810908 -0.6794311455
 H  0.3411918456 -0.9395211947 -0.4453294852
 H -1.0741171015 -0.0498232043  0.1835377995
5
step 2
 C -0.0004993365 -0.0050740444 -0.0062075283
 H  0.5182623546  0.1858615263  0.9547406846
 H  0.2159973249  0.8157911359 -0.6828251738
 H  0.3488478100 -0.9503658704 -0.4422866879
 H -1.0828231425 -0.0461890595  0.1754001468
5
step 3
 C -0.0007192505 -0.0076494715 -0.0091132799
 H  0.5124047292  0.1977663655  0.9630694732
 H  0.2218042345  0.8127914806 -0.6862929174
 H  0.3559795538 -0.9598935530 -0.4384904677
 H -1.0899937918 -0.0426958082  0.1668465641
5
step 4
 C -0.0009187515 -0.0102532243 -0.0118145920
 H  0.5049578194  0.2086775766  0.9683467839
 H  0.2275778130  0.8093388747 -0.6898483154
 H  0.3623536565 -0.9675888918 -0.4336830129
 H -1.0950458580 -0.0394400686  0.1577499728
5
step 5
 C -0.0010958193 -0.0128706622 -0.0142745550
 H  0.4957216631  0.2183261117  0.9700629603
 H  0.2332941625  0.8052986236 -0.6935003858
 H  0.3678020781 -0.9731216436 -0.4277018605
 H -1.0976115468 -0.0365231430  0.1480263433
5
step 6
 C -0.0012499609 -0.0154777341 -0.0164799284
 H  0.4846754169  0.2265243378  0.9680450621
 H  0.2389325847  0.8005519288 -0.6972572049
 H  0.3722350492 -0.9763713881 -0.4204850876
 H -1.0975655624 -0.0340470346  0.1376352302
5
step 7
 C -0.0013817835 -0.0180423694 -0.0184415413
 H  0.4719727835  0.2331809301  0.9624689797
 H  0.2444779959  0.7950042624 -0.7011308798
 H  0.3756484619 -0.9774375058 -0.4120696647
 H -1.0950353287 -0.0321101969  0.1265769407
5
step 8
 C -0.0014929865 -0.0205267798 -0.0201939169
 H  0.4579314442  0.2383127388  0.9538596261
 H  0.2499237394  0.7885938860 -0.7051427566
 H  0.3781258444 -0.9766353383 -0.4025840023
 H -1.0903952156 -0.0308033351  0.1148868619
5
step 9
 C -0.0015866880 -0.0228905796 -0.0217939186
 H  0.4430147282  0.2420521713  0.9430751973
 H  0.2552745656  0.7812994930 -0.7093281303
 H  0.3798341420 -0.9744772304 -0.3922345932
 H -1.0842430082 -0.0302055561  0.1026272356
5
step 10
 C -0.0016678477 -0.0250945569 -0.0233176668
 H  0.4278007980  0.2446462025  0.9312644281
 H  0.2605494523  0.7731459210 -0.7137397896
 H  0.3810117795 -0.9716354223 -0.3812859811
 H -1.0773549337 -0.0303812097  0.0898767349
5
step 11
 C -0.0017434245 -0.0271047528 -0.0248546214
 H  0.4129337199  0.2464411934  0.9197817260
 H  0.2657838270  0.7642069285 -0.7184497906
 H  0.3819473998 -0.9688837841 -0.3700335706
 H -1.0706158727 -0.0313777519  0.0767186526
5
step 12
 C -0.0018219011 -0.0288962945 -0.0264978824
 H  0.3990534112  0.2478479065  0.9100479990
 H  0.2710306392  0.7546041609 -0.7235488599
 H  0.3829487681 -0.9670181330 -0.3587702856
 H -1.0649250532 -0.0332247695  0.0632292774
5
step 13
 C -0.0019120235 -0.0304563440 -0.0283307868
 H  0.3867088029  0.2492854073  0.9033592174
 H  0.2763596497  0.7445016124 -0.7291427365
 H  0.3843037567 -0.9667605178 -0.3477505611
 H -1.0610845957 -0.0359339104  0.0494687275
5
step 14
 C -0.0020210758 -0.0317857199 -0.0304118343
 H  0.3762694783  0.2511115000  0.9006704517
 H  0.2818543033  0.7340950929 -0.7353446477
 H  0.3862385871 -0.9686600896 -0.3371576918
 H -1.0596868716 -0.0394990213  0.0354765868
5
step 15
 C -0.0021534862 -0.0328991749 -0.0327620622
 H  0.3678600315  0.2535575826  0.9024098988
 H  0.2876057066  0.7235965234 -0.7422631883
 H  0.3888813113 -0.9730090523 -0.3270817326
 H -1.0610228873 -0.0438956375  0.0212737258
5
step 16
 C -0.0023105908 -0.0338246279 -0.0353595750
 H  0.3613401954  0.2566898200  0.9083848985
 H  0.2937036332  0.7132135161 -0.7499854857
 H  0.3922391660 -0.9797930554 -0.3175136675
 H -1.0650334833 -0.0490793694  0.0068698202
5
step 17
 C -0.0024917277 -0.0346015666 -0.0381438472
 H  0.3563389523  0.2604105130  0.9178156836
 H  0.3002251587  0.7031258633 -0.7585568737
 H  0.3961958712 -0.9886891146 -0.3083574122
 H -1.0713162088 -0.0549836066 -0.0077258667
5
step 18
 C -0.0026959490 -0.0352785044 -0.0410285176
 H  0.3523299811  0.2644968533  0.9294835959
 H  0.3072223877  0.6934621208 -0.7679600833
 H  0.4005297485 -0.9991121995 -0.2994560313
 H -1.0791861442 -0.0615177797 -0.0224938693
5
step 19
 C -0.0029232734 -0.0359093329 -0.0439182401
 H  0.3487225713  0.2686602317  0.9419405409
 H  0.3147114692  0.6842807476 -0.7780983942
 H  0.4049479205 -1.0102989925 -0.2906248313
 H -1.0877751155 -0.0685676198 -0.0373970607
5
step 20
 C -0.0031748284 -0.0365488273 -0.0467246125
 H  0.3449434146  0.2726063134  0.9537186107
 H  0.3226653216  0.6755603428 -0.7887873866
 H  0.4091283680 -1.0214095756 -0.2816833672
 H -1.0961466567 -0.0759982616 -0.0523778769
5
step 21
 C -0.0034519816 -0.0372480653 -0.0493779074
 H  0.3404957619  0.2760827939  0.9634988166
 H  0.3310119520  0.6672019239 -0.7997585242
 H  0.4127614641 -1.0316275623 -0.2724806187
 H -1.1034055081 -0.0836600652 -0.0673601434
5
step 22
 C -0.0037550397 -0.0380506336 -0.0518336683
 H  0.3349941718  0.2789109745  0.9702256355
 H  0.3396390994  0.6590433985 -0.8106752348
 H  0.4155850707 -1.0402448612 -0.2629109686
 H -1.1087877155 -0.0913962485 -0.0822544040
5
step 23
 C -0.0040821282 -0.0389901856 -0.0540749197
 H  0.3281800246  0.2810036512  0.9731739276
 H  0.3484045896  0.6508835688 -0.8211594664
 H  0.4174106174 -1.0467249435 -0.2529214400
 H -1.1117259796 -0.0990511688 -0.0969653896
5
step 24
 C -0.0044286167 -0.0400894479 -0.0561114369
 H  0.3199247349  0.2823740798  0.9719825962
 H  0.3571507885  0.6425112936 -0.8308248894
 H  0.4181402205 -1.0507446318 -0.2425120930
 H -1.1118912736 -0.1064782981 -0.1114005287
5
step 25
 C -0.0047871703 -0.0413604408 -0.0579774305
 H  0.3102261166  0.2831401198  0.9666680362
 H  0.3657211465  0.6337352196 -0.8393124202
 H  0.4177761285 -1.0522173857 -0.2317316165
 H -1.1092144987 -0.1135473332 -0.1254788210
5
step 26
 C -0.0051483190 -0.0428055885 -0.0597284783
 H  0.2992005378  0.2835255418  0.9576241014
 H  0.3739769928  0.6244104292 -0.8463243235
 H  0.4164236646 -1.0513009129 -0.2206695376
 H -1.1038914829 -0.1201501857 -0.1391396503
5
step 27
 C -0.0055013486 -0.0444194591 -0.0614378311
 H  0.2870705550  0.2838578047  0.9456070263
 H  0.3818131726  0.6144596927 -0.8516541640
 H  0.4142878730 -1.0483897702 -0.2094456869
 H -1.0963721846 -0.1262056674 -0.1523510554
5
step 28
 C -0.0058352962 -0.0461909899 -0.0631915444
 H  0.2741453775  0.2845588774  0.9316956222
 H  0.3891715175  0.6038881503 -0.8552107238
 H  0.4116628730 -1.0440908481 -0.1981970532
 H -1.0873320744 -0.1316625287 -0.1651165877
5
step 29
 C -0.0061398508 -0.0481060745 -0.0650814224
 H  0.2607905630  0.2861234644  0.9172116545
 H  0.3960512951  0.5927908644 -0.8570343363
 H  0.4089121238 -1.0391777729 -0.1870621947
 H -1.0776218364 -0.1365002535 -0.1774793253
5
step 30
 C -0.0064060364 -0.0501503050 -0.0671948362
 H  0.2473848160  0.2890784658  0.9035865585
 H  0.4025156515  0.5813527975 -0.8573039252
 H  0.4064380099 -1.0345207435 -0.1761640528
 H -1.0681921449 -0.1407268933 -0.1895211825
5
step 31
 C -0.0066267211 -0.0523115099 -0.0696014267
 H  0.2342664598  0.2939204880  0.8921732363
 H  0.4086927137  0.5698405272 -0.8563325807
 H  0.4046408232 -1.0309922508 -0.1655931700
 H -1.0599942675 -0.1443734851 -0.2013557985
5
step 32
 C -0.0067972182 -0.0545816696 -0.0723386372
 H  0.2216793300  0.3010361466  0.8840267943
 H  0.4147696267  0.5585846508 -0.8545491119
 H  0.4038703580 -1.0293565009 -0.1553944698
 H -1.0538645112 -0.1474853747 -0.2131143845
5
step 33
 C -0.0069163251 -0.0569578922 -0.0754002181
 H  0.2097337328  0.3106212000  0.8797067741
 H  0.4209776550  0.5479517374 -0.8524632265
 H  0.4043771731 -1.0301592498 -0.1455611452
 H -1.0504091719 -0.1501119208 -0.2249259756
5
step 34
 C -0.0069878269 -0.0594423097 -0.0787326376
 H  0.1983970828  0.3226227724  0.8791653661
 H  0.4275670651  0.5383054897 -0.8506136248
 H  0.4062734038 -1.0336410688 -0.1360381050
 H -1.0499128761 -0.1522970782 -0.2368959115
5
step 35
 C -0.0070218204 -0.0620408067 -0.0822422993
 H  0.1875185208  0.3367259580  0.8817638726
 H  0.4347723808  0.5299591403 -0.8495020696
 H  0.4095128175 -1.0396960644 -0.1267348056
 H -1.0522926110 -0.1540735652 -0.2490878191
5
step 36
 C -0.0070347579 -0.0647604851 -0.0858121960
 H  0.1768776674  0.3523906078  0.8864104156
 H  0.4427718917  0.5231250132 -0.8495221621
 H  0.4138956544 -1.0478878432 -0.1175441631
 H -1.0571101963 -0.1554623299 -0.2615138055
5
step 37
 C -0.0070474712 -0.0676060243 -0.0893228015
 H  0.1662393730  0.3689253727  0.8917672882
 H  0.4516490489  0.5178711623 -0.8508969331
 H  0.4190970151 -1.0575185016 -0.1083622687
 H -1.0636403157 -0.1564771832 -0.2741350247
5
step 38
 C -0.0070814992 -0.0705756744 -0.0926710211
 H  0.1553984665  0.3855760753  0.8964637159
 H  0.4613654855  0.5140963977 -0.8536409007
 H  0.4247113323 -1.0677322567 -0.0991039180
 H -1.0709765658 -0.1571327277 -0.2868715603
5
step 39
 C -0.0071549731 -0.0736580770 -0.0957829465
 H  0.1442070936  0.4016079167  0.8992683206
 H  0.4717538492  0.5115317634 -0.8575574609
 H  0.4303026392 -1.0776294740 -0.0897111398
 H -1.0781510238 -0.1574529590 -0.2996183101
5
step 40
 C -0.0072794458 -0.0768309482 -0.0986192348
 H  0.1325853970  0.4163704857  0.8992048021
 H  0.4825333532  0.5097693245 -0.8622725682
 H  0.4354515172 -1.0863703202 -0.0801545565
 H -1.0842453251 -0.1574783198 -0.3122630352
5
step 41
 C -0.0074584309 -0.0800619650 -0.1011744156
 H  0.1205203645  0.4293438095  0.8956163229
 H  0.4933443885  0.5083114094 -0.8672954184
 H  0.4397931957 -1.0932560529 -0.0704292297
 H -1.0884797240 -0.1572700510 -0.3247036106
5
step 42
 C -0.0076876063 -0.0833114586 -0.1034725299
 H  0.1080580033  0.4401690680  0.8881933726
 H  0.5037939875  0.5066290612 -0.8720912245
 H  0.4430450608 -1.0977848609 -0.0605472240
 H -1.0902758402 -0.1569117253 -0.3368628870
5
step 43
 C -0.0079561280 -0.0865361439 -0.1055613670
 H  0.0952924450  0.4486689050  0.8769794091
 H  0.5135031572  0.5042187946 -0.8761518685
 H  0.4450243642 -1.0996848952 -0.0505287946
 H -1.0892951169 -0.1565084710 -0.3487006947
5
step 44
 C -0.0082484124 -0.0896931411 -0.1075067166
 H  0.0823537017  0.4548607252  0.8623629981
 H  0.5221494163  0.5006504060 -0.8790551403
 H  0.4456578204 -1.0989289751 -0.0403934441
 H -1.0854573864 -0.1561845528 -0.3602230618
5
step 45
 C -0.0085459471 -0.0927437595 -0.1093870329
 H  0.0693943603  0.4589631037  0.8450578374
 H  0.5295012577  0.4956029076 -0.8805089649
 H  0.4449843443 -1.0957343136 -0.0301515490
 H -1.0789430797 -0.1560798313 -0.3714886392
5
step 46
 C -0.0088289797 -0.0956566785 -0.1112880504
 H  0.0565748310  0.4613913682  0.8260649613
 H  0.5354438954  0.4888886949 -0.8803809372
 H  0.4431510085 -1.0905478945 -0.0197970432
 H -1.0701799772 -0.1563453789 -0.3826117856
5
step 47
 C -0.0090781774 -0.0984101877 -0.1132963961
 H  0.0440469750  0.4627346537  0.8066063963
 H  0.5399967654  0.4804671757 -0.8787148822
 H  0.4404010324 -1.0840153421 -0.0093018307
 H -1.0598125215 -0.1571383143 -0.3937610017
5
step 48
 C -0.0092764949 -0.1009931006 -0.1154912592
 H  0.0319370375  0.4637051975  0.7880191437
 H  0.5433229106  0.4704486495 -0.8757354994
 H  0.4370519215 -1.0769296100  0.0013869383
 H -1.0486500555 -0.1586158021 -0.4051507562
5
step 49
 C -0.0094114899 -0.1034040382 -0.1179338875
 H  0.0203304869  0.4650541407  0.7716058088
 H  0.5457291082  0.4590879642 -0.8718403657
 H  0.4334624006 -1.0701568507  0.0123450883
 H -1.0375912262 -0.1609281306 -0.4170246713
5
step 50
 C -0.0094781288 -0.1056491657 -0.1206561411
 H  0.0092627508  0.4674587842  0.7584550114
 H  0.5476539924  0.4467661074 -0.8675765428
 H  0.4299889467 -1.0645412042  0.0236633896
 H -1.0275260462 -0.1642108236 -0.4296290356
5
step 51
 C -0.0094816944 -0.1077391111 -0.1236511302
 H -0.0012803914  0.4714023118  0.7492664846
 H  0.5496402015  0.4339571174 -0.8635977189
 H  0.4269363900 -1.0607976378  0.0354323348
 H -1.0192244651 -0.1685758710 -0.4431779836
5
step 52
 C -0.0094398225 -0.1096862353 -0.1268699884
 H -0.0113517252  0.4770799014  0.7442298434
 H  0.5522867412  0.4211784029 -0.8605984679
 H  0.4245110529 -1.0594101743  0.0477207762
 H -1.0132286762 -0.1741024560 -0.4578150908
5
step 53
 C -0.0093823296 -0.1115031259 -0.1302278151
 H -0.0210240984  0.4843633420  0.7429979495
 H  0.5561806900  0.4089257784 -0.8592263623
 H  0.4227871432 -1.0605576802  0.0605522854
 H -1.0097717117 -0.1808280445 -0.4735792737
5
step 54
 C -0.0093478116 -0.1132022263 -0.1336186131
 H -0.0303709446  0.4928361297  0.7447640703
 H  0.5618139344  0.3976006364 -0.8599809785
 H  0.4216955030 -1.0640865892  0.0738853734
 H -1.0087428165 -0.1887412465 -0.4903838089
5
step 55
 C -0.0093771878 -0.1147957877 -0.1369352800
 H -0.0394520299  0.5018838819  0.7484144947
 H  0.5694994684  0.3874438391 -0.8631190367
 H  0.4210380323 -1.0695385072  0.0876038176
 H -1.0097092608 -0.1977781225 -0.5080147286
5
step 56
 C -0.0095058559 -0.1162955604 -0.1400887111
 H -0.0483073954  0.5108082216  0.7527080816
 H  0.5793082954  0.3784945468 -0.8685910634
 H  0.4205235516 -1.0762250924  0.1015206474
 H -1.0119885987 -0.2078232542 -0.5261495129
5
step 57
 C -0.0097569227 -0.1177124463 -0.1430209464
 H -0.0569587958  0.5189336225  0.7564392537
 H  0.5910463502  0.3705877102 -0.8760305795
 H  0.4198153441 -1.0833305635  0.1153950846
 H -1.0147523775 -0.2187159486 -0.5443914795
5
step 58
 C -0.0101374748 -0.1190567372 -0.1457102074
 H -0.0654159137  0.5256896938  0.7585608280
 H  0.6042794249  0.3633916113 -0.8848011975
 H  0.4185795005 -1.0900189244  0.1289581758
 H -1.0171377053 -0.2302607975 -0.5623121149
5
step 59
 C -0.0106384295 -0.1203392074 -0.1481687876
 H -0.0736845306  0.5306651623  0.7582627934
 H  0.6183983397  0.3564732497 -0.8940879926
 H  0.4165259642 -1.0955280039  0.1419415612
 H -1.0183471777 -0.2422410126 -0.5794936689
5
step 60
 C -0.0112371282 -0.1215727248 -0.1504365758
 H -0.0817747485  0.5336381291  0.7550146790
 H  0.6327054785  0.3493724212 -0.9030078948
 H  0.4134384739 -1.0992411364  0.1541047289
 H -1.0177263143 -0.2544327667 -0.5955666464
5
step 61
 C -0.0119012367 -0.1227737531 -0.1525731228
 H -0.0897083633  0.5345895443  0.7485822340
 H  0.6465023970  0.3416675884 -0.9107145344
 H  0.4091932241 -1.1007350965  0.1652580639
 H -1.0148160223 -0.2666191202 -0.6102397433
5
step 62
 C -0.0125927181 -0.1239632361 -0.1546501578
 H -0.0975250977  0.5337053171  0.7390268164
 H  0.6591645987  0.3330244341 -0.9164823784
 H  0.4037679772 -1.0998073634  0.1752808355
 H -1.0093828904 -0.2786026966 -0.6233220217
5
step 63
 C -0.0132712481 -0.1251666201 -0.1567451647
 H -0.1052875252  0.5313691003  0.7266910780
 H  0.6701982389  0.3232258203 -0.9197659132
 H  0.3972436503 -1.0964867914  0.1841342886
 H -1.0014317969 -0.2902167718 -0.6347381614
5
step 64
 C -0.0138970285 -0.1264129635 -0.1589356105
 H -0.1130842103  0.5281439436  0.7121692540
 H  0.6792799518  0.3121865105 -0.9202369422
 H  0.3897996014 -1.0910302897  0.1918700659
 H -0.9912042578 -0.3013346284 -0.6445374636
5
step 65
 C -0.0144333393 -0.1277331531 -0.1612929091
 H -0.1210299966  0.5247378317  0.6962562577
 H  0.6862836065  0.2999571354 -0.9178054642
 H  0.3817026500 -1.0839054876  0.1986334929
 H -0.9791634266 -0.3118768120 -0.6528962418
5
step 66
 C -0.0148493006 -0.1291573066 -0.1638752671
 H -0.1292617517  0.5219470416  0.6798688358
 H  0.6912970783  0.2867207015 -0.9126281976
 H  0.3732888808 -1.0757569178  0.2046601943
 H -0.9659639782 -0.3218153810 -0.6601118385
5
step 67
 C -0.0151232100 -0.1307116126 -0.1667192198
 H -0.1379276931  0.5205740534  0.6639364821
 H  0.6946292823  0.2727827829 -0.9051053612
 H  0.3649370619 -1.0673522729  0.2102636486
 H -0.9524034864 -0.3311736023 -0.6665854099
5
step 68
 C -0.0152464539 -0.1324152023 -0.1698308953
 H -0.1471693139  0.5213246195  0.6492706912
 H  0.6968038394  0.2585543225 -0.8958622874
 H  0.3570334683 -1.0595069626  0.2158112847
 H -0.9393524498 -0.3400192392 -0.6727906228
5
step 69
 C -0.0152273561 -0.1342779932 -0.1731794930
 H -0.1570973060  0.5247001363  0.6364356719
 H  0.6985319229  0.2445242808 -0.8857091247
 H  0.3499301651 -1.0529901681  0.2216882467
 H -0.9276637237 -0.3484501030 -0.6792272537
5
step 70
 C -0.0150935703 -0.1363004305 -0.1766963293
 H -0.1677661914  0.5309110954  0.6256538585
 H  0.7006546940  0.2312189365 -0.8755709823
 H  0.3439019212 -1.0484231692  0.2282512416
 H -0.9180688084 -0.3565722956 -0.6863626768
5
step 71
 C -0.0148911532 -0.1384753527 -0.1802820985
 H -0.1791547890  0.5398374113  0.6167759282
 H  0.7040480357  0.2191464967 -0.8663847627
 H  0.3391096215 -1.0461881735  0.2357792433
 H -0.9110765903 -0.3644743467 -0.6945695600
5
step 72
 C -0.0146788983 -0.1407910890 -0.1838223857
 H -0.1911590529  0.5510483611  0.6093252361
 H  0.7094921181  0.2087307700 -0.8589696340
 H  0.3355785725 -1.0463687549  0.2444313197
 H -0.9068958641 -0.3722031660 -0.7040724224
5
step 73
 C -0.0145181733 -0.1432342225 -0.1872079623
 H -0.2035998802  0.5638747397  0.6026005960
 H  0.7175257466  0.2002452311 -0.8538940160
 H  0.3331972807 -1.0487377734  0.2542220583
 H -0.9054016744 -0.3797486572 -0.7149160676
5
step 74
 C -0.0144608088 -0.1457909154 -0.1903539922
 H -0.2162434082  0.5775104215  0.5958045587
 H  0.7283231092  0.1937649137 -0.8513749311
 H  0.3317368287 -1.0527960138  0.2650209168
 H -0.9061553610 -0.3870418176 -0.7269638623
5
step 75
 C -0.0145390265 -0.1484469098 -0.1932125886
 H -0.2288280361  0.5911174726  0.5881644516
 H  0.7416346967  0.1891524430 -0.8512437528
 H  0.3308854264 -1.0578505440  0.2765749580
 H -0.9084729563 -0.3939668151 -0.7399252737
5
step 76
 C -0.0147606847 -0.1511871645 -0.1957761099
 H -0.2410921872  0.6039163878  0.5790257692
 H  0.7568157743  0.1860839789 -0.8529911291
 H  0.3302897141 -1.0631129042  0.2885482806
 H -0.9115238355 -0.4003831611 -0.7534043096
5
step 77
 C -0.0151106009 -0.1539959635 -0.1980723361
 H -0.2527987238  0.6152536681  0.5679119542
 H  0.7729328202  0.1841062495 -0.8558741190
 H  0.3295947776 -1.0677967811  0.3005687360
 H -0.9144370424 -0.4061518558 -0.7669569747
5
step 78
 C -0.0155561774 -0.1568576558 -0.2001550535
 H -0.2637542459  0.6246469522  0.5545543283
 H  0.7889118055  0.1827064655 -0.8590492810
 H  0.3284774895 -1.0712007211  0.3122734583
 H -0.9163966770 -0.4111598494 -0.7801470172
5
step 79
 C -0.0160545452 -0.1597576769 -0.2020937187
 H -0.2738231373  0.6318115580  0.5388995973
 H  0.8036869522  0.1813773828 -0.8616962535
 H  0.3266709311 -1.0727692911  0.3233477444
 H -0.9167159935 -0.4153393033 -0.7925931059
5
step 80
 C -0.0165590417 -0.1626834096 -0.2039644994
 H -0.2829368902  0.6366725226  0.5211018129
 H  0.8163219571  0.1796671820 -0.8631112671
 H  0.3239800262 -1.0721324094  0.3335550235
 H -0.9148878114 -0.4186805026 -0.8040047386
5
step 81
 C -0.0170240985 -0.1656245968 -0.2058433412
 H -0.2910991434  0.6393645407  0.5015031404
 H  0.8260944728  0.1772121145 -0.8627666261
 H  0.3202897187 -1.0691259368  0.3427578826
 H -0.9106138831 -0.4212388808 -0.8142070965
5
step 82
 C -0.0174086888 -0.1685731734 -0.2078006028
 H -0.2983862681  0.6402197201  0.4806048540
 H  0.8325482657  0.1737550965 -0.8603425194
 H  0.3155671645 -1.0637971716  0.3509310020
 H -0.9038175186 -0.4231372029 -0.8231562554
5
step 83
 C -0.0176790231 -0.1715224760 -0.2098963916
 H -0.3049425517  0.6397407138  0.4590277283
 H  0.8355227316  0.1691550029 -0.8557404402
 H  0.3098588504 -1.0563975192  0.3581665242
 H -0.8946428134 -0.4245637180 -0.8309458398
5
step 84
 C -0.0178112507 -0.1744658625 -0.2121758768
 H -0.3109684590  0.6385556561  0.4374603088
 H  0.8351681228  0.1633904448 -0.8490854247
 H  0.3032827292 -1.0473624146  0.3646712652
 H -0.8834414647 -0.4257664172 -0.8378048958
5
step 85
 C -0.0177946421 -0.1773949119 -0.2146643802
 H -0.3167006516  0.6373526840  0.4165951455
 H  0.8319498078  0.1565595849 -0.8407199584
 H  0.2960148237 -1.0372767333  0.3707538814
 H -0.8707456402 -0.4270428279 -0.8440851582
5
step 86
 C -0.0176351785 -0.1802976049 -0.2173628070
 H -0.3223839055  0.6367965887  0.3970570784
 H  0.8266383886  0.1488749094 -0.8311875296
 H  0.2882697273 -1.0268235514  0.3767993952
 H -0.8572239042 -0.4287243927 -0.8502347991
5
step 87
 C -0.0173587273 -0.1831571066 -0.2202447862
 H -0.3282378015  0.6374376882  0.3793329549
 H  0.8202761363  0.1406494070 -0.8211995859
 H  0.2802753317 -1.0167161031  0.3832292110
 H -0.8436179259 -0.4311547167 -0.8567560785
5
step 88
 C -0.0170122096 -0.1859517653 -0.2232574114
 H -0.3344241565  0.6396303217  0.3637161123
 H  0.8141060101  0.1322690605 -0.8115774147
 H  0.2722439444 -1.0076173662  0.3904475560
 H -0.8306613619 -0.4346620100 -0.8641468439
5
step 89
 C -0.0166607968 -0.1886565301 -0.2263272374
 H -0.3410228307  0.6434807031  0.3502785134
 H  0.8094509265  0.1241473004 -0.8031624425
 H  0.2643441472 -1.0000577624  0.3987799982
 H -0.8189886863 -0.4395278130 -0.8728306792
5
step 90
 C -0.0163797653 -0.1912453153 -0.2293718648
 H -0.3480222481  0.6488379587  0.3388772848
 H  0.8075424170  0.1166618093 -0.7966972081
 H  0.2566791591 -0.9943662660  0.4084147748
 H -0.8090488032 -0.4459561084 -0.8830864465
5
step 91
 C -0.0162415477 -0.1936934325 -0.2323151981
 H -0.3553267541  0.6553296191  0.3291928085
 H  0.8093208658  0.1100831910 -0.7926949809
 H  0.2492768896 -0.9906304227  0.4193603242
 H -0.8010422451 -0.4540482725 -0.8949922141
5
step 92
 C -0.0163011648 -0.1959795117 -0.2351023051
 H -0.3627778825  0.6624299810  0.3207872027
 H  0.8152560474  0.1045148782 -0.7913322255
 H  0.2420939898 -0.9886947361  0.4314302567
 H -0.7948979956 -0.4637890989 -0.9083979930
5
step 93
 C -0.0165849035 -0.1980870647 -0.2377092170
 H -0.3701832908  0.6695430208  0.3131688398
 H  0.8252474841  0.0998663931 -0.7924019095
 H  0.2350321955 -0.9881966356  0.4442600963
 H -0.7902960306 -0.4750470372 -0.9229352418
5
step 94
 C -0.0170861794 -0.2000061835 -0.2401448406
 H -0.3773467447  0.6760827300  0.3058508744
 H  0.8386429342  0.0958718962 -0.7953478359
 H  0.2279620644 -0.9886296263  0.4573515614
 H -0.7867287506 -0.4875885559 -0.9380611595
5
step 95
 C -0.0177692428 -0.2017354536 -0.2424454667
 H -0.3840943610  0.6815397936  0.2983969467
 H  0.8543674401  0.0921472473 -0.7993683080
 H  0.2207482179 -0.9894184631  0.4701338962
 H -0.7835848271 -0.5011035053 -0.9531269834
5
step 96
 C -0.0185780870 -0.2032835270 -0.2446650069
 H -0.3902947470  0.6855300752  0.2904521958
 H  0.8711149203  0.0882643293 -0.8035526286
 H  0.2132713183 -0.9899921570  0.4820299640
 H -0.7802365294 -0.5152366261 -0.9674554932
5
step 97
 C -0.0194467263 -0.2046696419 -0.2468646205
 H -0.3958725165  0.6878248248  0.2817607918
 H  0.8875439276  0.0838199726 -0.8070109188
 H  0.2054441697 -0.9898452144  0.4925169442
 H -0.7761156966 -0.5296202686 -0.9804142858
5
step 98
 C -0.0203080034 -0.2059227355 -0.2491041553
 H -0.4008155713  0.6883645028  0.2721723392
 H  0.9024370143  0.0784859077 -0.8089726258
 H  0.1972213702 -0.9885828600  0.5011755346
 H -0.7707706278 -0.5439045410 -0.9914761365
5
step 99
 C -0.0210998809 -0.2070792590 -0.2514361347
 H -0.4051767140  0.6872583457  0.2616393954
 H  0.9148099189  0.0720371803 -0.8088478301
 H  0.1886032363 -0.9859501243  0.5077255506
 H -0.7639026665 -0.5577827799 -1.0002631195
5
step 100
 C -0.0217695503 -0.2081800414 -0.2539018507
 H -0.4090699255  0.6847711085  0.2502076925
 H  0.9239764421  0.0643634035 -0.8062578392
 H  0.1796351754 -0.9818468339  0.5120484539
 H -0.7553851844 -0.5710117117 -1.0065750633
5
step 101
 C -0.0222762858 -0.2092665701 -0.2565286986
 H -0.4126612814  0.6812975231  0.2379999640
 H  0.9295827938  0.0554691591 -0.8010455549
 H  0.1704035236 -0.9763308398  0.5141982443
 H -0.7452687660 -0.5834265007 -1.0104045400
5
step 102
 C -0.0225939386 -0.2103770148 -0.2593280241
 H -0.4161542873  0.6773245934  0.2251939454
 H  0.9316240566  0.0454685771 -0.7932743400
 H  0.1610284350 -0.9696108456  0.5144015397
 H -0.7337753687 -0.5949508790 -1.0119401238
5
step 103
 C -0.0227135843 -0.2115423590 -0.2622931910
 H -0.4197696744  0.6733825383  0.2119954448
 H  0.9304493701  0.0345765846 -0.7832197074
 H  0.1516540155 -0.9620287349  0.5130462336
 H -0.7212821845 -0.6056018468 -1.0115578906
5
step 104
 C -0.0226462395 -0.2127831480 -0.2653981400
 H -0.4237206156  0.6699873445  0.1986084752
 H  0.9267544092  0.0230967189 -0.7713532006
 H  0.1424357862 -0.9540301927  0.5106567609
 H -0.7082939131 -0.6154873491 -1.0097990954
5
step 105
 C -0.0224248595 -0.2141075259 -0.2685972545
 H -0.4281858318  0.6675811193  0.1852060000
 H  0.9215515539  0.0114034002 -0.7583135869
 H  0.1335258807 -0.9461224827  0.5078537037
 H -0.6954012107 -0.6247944494 -1.0073308473
5
step 106
 C -0.0221041496 -0.2155112303 -0.2718276793
 H -0.4332846548  0.6664794335  0.1719061176
 H  0.9161019580 -0.0000843524 -0.7448582095
 H  0.1250571065 -0.9388200499  0.5052970933
 H -0.6832240792 -0.6337655829 -1.0048875329
5
step 107
 C -0.0217563977 -0.2169798926 -0.2750150888
 H -0.4390589086  0.6668356967  0.1587584981
 H  0.9117932499 -0.0109399199 -0.7317888181
 H  0.1171279067 -0.9325821514  0.5036165822
 H -0.6723424360 -0.6426622279 -1.0031945062
5
step 108
 C -0.0214620822 -0.2184933564 -0.2780830364
 H -0.4454656880  0.6686299259  0.1457440299
 H  0.9099571849 -0.0207756496 -0.7198533476
 H  0.1097908655 -0.9277509632  0.5033368539
 H -0.6632215472 -0.6517190125 -1.0028817933
5
step 109
 C -0.0212958279 -0.2200310571 -0.2809644829
 H -0.4523826566  0.6716834646  0.1327873221
 H  0.9116463655 -0.0292923125 -0.7096378116
 H  0.1030472263 -0.9245015782  0.5048110709
 H -0.6561454187 -0.6610959586 -1.0044021225
5
step 110
 C -0.0213109745 -0.2215771710 -0.2836125657
 H -0.4596243006  0.6756946943  0.1197783505
 H  0.9174213698 -0.0363194186 -0.7014754710
 H  0.0968487131 -0.9228149313  0.5081762096
 H -0.6511734079 -0.6708399865 -1.0079708932
5
step 111
 C -0.0215279518 -0.2231243935 -0.2860072224
 H -0.4669651178  0.6802865106  0.1065976080
 H  0.9272183244 -0.0418335007 -0.6954035076
 H  0.0911061542 -0.9224802173  0.5133403339
 H -0.6481317249 -0.6808664458 -1.0135427272
5
step 112
 C -0.0219308876 -0.2246756692 -0.2881556490
 H -0.4741649639  0.6850557903  0.0931392887
 H  0.9403497009 -0.0459479328 -0.6911833744
 H  0.0857027651 -0.9231262779  0.5200042744
 H -0.6466425558 -0.6909664494 -1.0208301308
5
step 113
 C -0.0224733083 -0.2262437002 -0.2900871071
 H -0.4809926170  0.6896174773  0.0793287757
 H  0.9556398633 -0.0488787606 -0.6883757494
 H  0.0805091621 -0.9242746181  0.5277118993
 H -0.6461831518 -0.7008381489 -1.0293583970
5
step 114
 C -0.0230898635 -0.2278485187 -0.2918446357
 H -0.4872451466  0.6936392603  0.0651329332
 H  0.9716444406 -0.0508992028 -0.6864413723
 H  0.0753973841 -0.9254027439  0.5359174461
 H -0.6461602401 -0.7101335006 -1.0385423994
5
step 115
 C -0.0237093888 -0.2295137824 -0.2934765937
 H -0.4927620295  0.6968655273  0.0505635065
 H  0.9868827795 -0.0522961794 -0.6848367405
 H  0.0702520853 -0.9260063181  0.5440568175
 H -0.6459840725 -0.7185093474 -1.0477684377
5
step 116
 C -0.0242656988 -0.2312626320 -0.2950299383
 H -0.4974338322  0.6991308891  0.0356749736
 H  1.0000295014 -0.0533370348 -0.6830854855
 H  0.0649781065 -0.9256514216  0.5516119132
 H -0.6451304301 -0.7256731197 -1.0564673705
5
step 117
 C -0.0247047194 -0.2331138636 -0.2965457939
 H -0.5012057854  0.7003643452  0.0205585343
 H  1.0100432409 -0.0542483668 -0.6808209431
 H  0.0595044903 -0.9240123153  0.5581612636
 H -0.6431849586 -0.7314173707 -1.0641711464
5
step 118
 C -0.0249883126 -0.2350788930 -0.2980569582
 H -0.5040768773  0.7005854966  0.0053338016
 H  1.0162365910 -0.0552048424 -0.6778049572
 H  0.0537855088 -0.9208938578  0.5634145254
 H -0.6398695160 -0.7356414575 -1.0705505660
5
step 119
 C -0.0250958994 -0.2371597036 -0.2995866822
 H -0.5060952576  0.6998943039 -0.0098605941
 H  1.0183032016 -0.0563245722 -0.6739309863
 H  0.0477994392 -0.9162401223  0.5672314294
 H -0.6350532808 -0.7383614318 -1.0754358474
5
step 120
 C -0.0250249382 -0.2393477969 -0.3011481536
 H -0.5073507836  0.6984558549 -0.0248766801
 H  1.0163182896 -0.0576680845 -0.6692183803
 H  0.0415457617 -0.9101315552  0.5696270465
 H -0.6287521099 -0.7397102134 -1.0788229013
5
step 121
 C -0.0247908836 -0.2416241304 -0.3027443789
 H -0.5079655091  0.6964815545 -0.0395665929
 H  1.0107228234 -0.0592392019 -0.6638017684
 H  0.0350412966 -0.9027726505  0.5707650541
 H -0.6211187553 -0.7399297660 -1.0808676707
5
step 122
 C -0.0244266874 -0.2439600549 -0.3043684512
 H -0.5080828777  0.6942081845 -0.0537914434
 H  1.0022935798 -0.0609875915 -0.6579164052
 H  0.0283156729 -0.8944712887  0.5709397655
 H -0.6124250248 -0.7393560071 -1.0818694049
5
step 123
 C -0.0239813864 -0.2463192721 -0.3060044419
 H -0.5078564075  0.6918764416 -0.0674292264
 H  0.9920938120 -0.0628141475 -0.6518778324
 H  0.0214065002 -0.8856103385  0.5705469169
 H -0.6030357045 -0.7383963107 -1.0822423407
5
step 124
 C -0.0235169475 -0.2486607400 -0.3076292988
 H -0.5074387117  0.6897107354 -0.0803813194
 H  0.9813945757 -0.0645813934 -0.6460528745
 H  0.0143546997 -0.8766123336  0.5700433223
 H -0.5933737479 -0.7374992742 -1.0824748432
5
step 125
 C -0.0231025155 -0.2509422616 -0.3092160911
 H -0.5069717157  0.6879020227 -0.0925770885
 H  0.9715573478 -0.0661312657 -0.6408194494
 H  0.0072005771 -0.8678991552  0.5698968877
 H -0.5838772886 -0.7371172581 -1.0830762506
5
step 126
 C -0.0228057403 -0.2531242708 -0.3107386352
 H -0.5065788009  0.6865950825 -0.1039762290
 H  0.9638771525 -0.0673112830 -0.6365156621
 H -0.0000187498 -0.8598503283  0.5705309539
 H -0.5749513883 -0.7376640311 -1.0845145965
5
step 127
 C -0.0226820629 -0.2551732211 -0.3121769435
 H -0.5063592841  0.6858808894 -0.1145687542