2
step 0
Ne -1.5338709206  0.0000000000  0.0000000000
Ne  2.5338709251  0.0000000000  0.0000000000
2
step 1
Ne -1.5326640108 -0.0021698976 -0.0017007670
Ne  2.5326640153  0.0021698976  0.0017007670
2
step 2
Ne -1.5314769168 -0.0043041686 -0.0033736100
Ne  2.5314769212  0.0043041686  0.0033736100
2
step 3
Ne -1.5303092710 -0.0064034737 -0.0050190465
Ne  2.5303092754  0.0064034737  0.0050190465
2
step 4
Ne -1.5291606838 -0.0084685134 -0.0066376258
Ne  2.5291606883  0.0084685134  0.0066376258
2
step 5
Ne -1.5280307462 -0.0105000231 -0.0082299243
Ne  2.5280307506  0.0105000231  0.0082299243
2
step 6
Ne -1.5269190323 -0.0124987683 -0.0097965420
Ne  2.5269190368  0.0124987683  0.0097965420
2
step 7
Ne -1.5258251025 -0.0144655398 -0.0113380987
Ne  2.5258251070  0.0144655398  0.0113380987
2
step 8
Ne -1.5247485052 -0.0164011492 -0.0128552305
Ne  2.5247485097  0.0164011492  0.0128552305
2
step 9
Ne -1.5236887798 -0.0183064245 -0.0143485865
Ne  2.5236887843  0.0183064245  0.0143485865
2
step 10
Ne -1.5226454590 -0.0201822063 -0.0158188254
Ne  2.5226454635  0.0201822063  0.0158188254
2
step 11
Ne -1.5216180703 -0.0220293438 -0.0172666129
Ne  2.5216180747  0.0220293438  0.0172666129
2
step 12
Ne -1.5206061385 -0.0238486914 -0.0186926186
Ne  2.5206061429  0.0238486914  0.0186926186
2
step 13
Ne -1.5196091873 -0.0256411054 -0.0200975137
Ne  2.5196091918  0.0256411054  0.0200975137
2
step 14
Ne -1.5186267410 -0.0274074410 -0.0214819687
Ne  2.5186267455  0.0274074410  0.0214819687
2
step 15
Ne -1.5176583260 -0.0291485501 -0.0228466510
Ne  2.5176583304  0.0291485501  0.0228466510
2
step 16
Ne -1.5167034717 -0.0308652782 -0.0241922235
Ne  2.5167034762  0.0308652782  0.0241922235
2
step 17
Ne -1.5157617125 -0.0325584628 -0.0255193426
Ne  2.5157617169  0.0325584628  0.0255193426
2
step 18
Ne -1.5148325879 -0.0342289316 -0.0268286570
Ne  2.5148325924  0.0342289316  0.0268286570
2
step 19
Ne -1.5139156443 -0.0358775003 -0.0281208062
Ne  2.5139156488  0.0358775003  0.0281208062
2
step 20
Ne -1.5130104349 -0.0375049721 -0.0293964196
Ne  2.5130104394  0.0375049721  0.0293964196
2
step 21
Ne -1.5121165211 -0.0391121358 -0.0306561154
Ne  2.5121165256  0.0391121358  0.0306561154
2
step 22
Ne -1.5112334723 -0.0406997652 -0.0319005003
Ne  2.5112334768  0.0406997652  0.0319005003
2
step 23
Ne -1.5103608670 -0.0422686183 -0.0331301683
Ne  2.5103608715  0.0422686183  0.0331301683
2
step 24
Ne -1.5094982927 -0.0438194366 -0.0343457007
Ne  2.5094982972  0.0438194366  0.0343457007
2
step 25
Ne -1.5086453463 -0.0453529451 -0.0355476655
Ne  2.5086453508  0.0453529451  0.0355476655
2
step 26
Ne -1.5078016341 -0.0468698514 -0.0367366175
Ne  2.5078016386  0.0468698514  0.0367366175
2
step 27
Ne -1.5069667722 -0.0483708458 -0.0379130979
Ne  2.5069667767  0.0483708458  0.0379130979
2
step 28
Ne -1.5061403861 -0.0498566016 -0.0390776341
Ne  2.5061403906  0.0498566016  0.0390776341
2
step 29
Ne -1.5053221111 -0.0513277745 -0.0402307404
Ne  2.5053221156  0.0513277745  0.0402307404
2
step 30
Ne -1.5045115918 -0.0527850035 -0.0413729173
Ne  2.5045115963  0.0527850035  0.0413729173
2
step 31
Ne -1.5037084823 -0.0542289104 -0.0425046524
Ne  2.5037084868  0.0542289104  0.0425046524
2
step 32
Ne -1.5029124459 -0.0556601006 -0.0436264201
Ne  2.5029124504  0.0556601006  0.0436264201
2
step 33
Ne -1.5021231549 -0.0570791634 -0.0447386824
Ne  2.5021231593  0.0570791634  0.0447386824
2
step 34
Ne -1.5013402902 -0.0584866721 -0.0458418886
Ne  2.5013402947  0.0584866721  0.0458418886
2
step 35
Ne -1.5005635415 -0.0598831851 -0.0469364763
Ne  2.5005635460  0.0598831851  0.0469364763
2
step 36
Ne -1.4997926066 -0.0612692455 -0.0480228713
Ne  2.4997926111  0.0612692455  0.0480228713
2
step 37
Ne -1.4990271911 -0.0626453826 -0.0491014883
Ne  2.4990271955  0.0626453826  0.0491014883
2
step 38
Ne -1.4982670083 -0.0640121117 -0.0501727314
Ne  2.4982670128  0.0640121117  0.0501727314
2
step 39
Ne -1.4975117789 -0.0653699353 -0.0512369944
Ne  2.4975117833  0.0653699353  0.0512369944
2
step 40
Ne -1.4967612303 -0.0667193432 -0.0522946611
Ne  2.4967612347  0.0667193432  0.0522946611
2
step 41
Ne -1.4960150965 -0.0680608137 -0.0533461065
Ne  2.4960151010  0.0680608137  0.0533461065
2
step 42
Ne -1.4952731178 -0.0693948138 -0.0543916965
Ne  2.4952731223  0.0693948138  0.0543916965
2
step 43
Ne -1.4945350401 -0.0707218003 -0.0554317894
Ne  2.4945350446  0.0707218003  0.0554317894
2
step 44
Ne -1.4938006147 -0.0720422204 -0.0564667354
Ne  2.4938006192  0.0720422204  0.0564667354
2
step 45
Ne -1.4930695978 -0.0733565125 -0.0574968783
Ne  2.4930696022  0.0733565125  0.0574968783
2
step 46
Ne -1.4923417499 -0.0746651069 -0.0585225554
Ne  2.4923417543  0.0746651069  0.0585225554
2
step 47
Ne -1.4916168355 -0.0759684270 -0.0595440985
Ne  2.4916168400  0.0759684270  0.0595440985
2
step 48
Ne -1.4908946227 -0.0772668901 -0.0605618347
Ne  2.4908946272  0.0772668901  0.0605618347
2
step 49
Ne -1.4901748822 -0.0785609084 -0.0615760870
Ne  2.4901748866  0.0785609084  0.0615760870
2
step 50
Ne -1.4894573868 -0.0798508900 -0.0625871754
Ne  2.4894573913  0.0798508900  0.0625871754
2
step 51
Ne -1.4887419112 -0.0811372405 -0.0635954176
Ne  2.4887419156  0.0811372405  0.0635954176
2
step 52
Ne -1.4880282305 -0.0824203636 -0.0646011303
Ne  2.4880282350  0.0824203636  0.0646011303
2
step 53
Ne -1.4873161201 -0.0837006637 -0.0656046303
Ne  2.4873161246  0.0837006637  0.0656046303
2
step 54
Ne -1.4866053542 -0.0849785464 -0.0666062355
Ne  2.4866053587  0.0849785464  0.0666062355
2
step 55
Ne -1.4858957052 -0.0862544212 -0.0676062669
Ne  2.4858957097  0.0862544212  0.0676062669
2
step 56
Ne -1.4851869422 -0.0875287030 -0.0686050498
Ne  2.4851869467  0.0875287030  0.0686050498
2
step 57
Ne -1.4844788298 -0.0888018151 -0.0696029158
Ne  2.4844788342  0.0888018151  0.0696029158
2
step 58
Ne -1.4837711266 -0.0900741914 -0.0706002051
Ne  2.4837711310  0.0900741914  0.0706002051
2
step 59
Ne -1.4830635834 -0.0913462801 -0.0715972690
Ne  2.4830635879  0.0913462801  0.0715972690
2
step 60
Ne -1.4823559412 -0.0926185468 -0.0725944724
Ne  2.4823559456  0.0926185468  0.0725944724
2
step 61
Ne -1.4816479288 -0.0938914791 -0.0735921975
Ne  2.4816479332  0.0938914791  0.0735921975
2
step 62
Ne -1.4809392602 -0.0951655911 -0.0745908473
Ne  2.4809392646  0.0951655911  0.0745908473
2
step 63
Ne -1.4802296314 -0.0964414295 -0.0755908501
Ne  2.4802296359  0.0964414295  0.0755908501
2
step 64
Ne -1.4795187170 -0.0977195792 -0.0765926647
Ne  2.4795187215  0.0977195792  0.0765926647
2
step 65
Ne -1.4788061659 -0.0990006716 -0.0775967856
Ne  2.4788061704  0.0990006716  0.0775967856
2
step 66
Ne -1.4780915969 -0.1002853920 -0.0786037502
Ne  2.4780916014  0.1002853920  0.0786037502
2
step 67
Ne -1.4773745931 -0.1015744898 -0.0796141459
Ne  2.4773745976  0.1015744898  0.0796141459
2
step 68
Ne -1.4766546964 -0.1028687889 -0.0806286182
Ne  2.4766547009  0.1028687889  0.0806286182
2
step 69
Ne -1.4759314006 -0.1041691991 -0.0816478806
Ne  2.4759314050  0.1041691991  0.0816478806
2
step 70
Ne -1.4752041444 -0.1054767297 -0.0826727239
Ne  2.4752041488  0.1054767297  0.0826727239
2
step 71
Ne -1.4744723036 -0.1067925029 -0.0837040276
Ne  2.4744723081  0.1067925029  0.0837040276
2
step 72
Ne -1.4737351831 -0.1081177685 -0.0847427716
Ne  2.4737351876  0.1081177685  0.0847427716
2
step 73
Ne -1.4729920081 -0.1094539195 -0.0857900476
Ne  2.4729920125  0.1094539195  0.0857900476
2
step 74
Ne -1.4722419157 -0.1108025071 -0.0868470713
Ne  2.4722419202  0.1108025071  0.0868470713
2
step 75
Ne -1.4714839469 -0.1121652558 -0.0879151946
Ne  2.4714839514  0.1121652558  0.0879151946
2
step 76
Ne -1.4707170383 -0.1135440772 -0.0889959156
Ne  2.4707170428  0.1135440772  0.0889959156
2
step 77
Ne -1.4699400157 -0.1149410827 -0.0900908893
Ne  2.4699400202  0.1149410827  0.0900908893
2
step 78
Ne -1.4691515883 -0.1163585928 -0.0912019346
Ne  2.4691515927  0.1163585928  0.0912019346
2
step 79
Ne -1.4683503450 -0.1177991444 -0.0923310399
Ne  2.4683503495  0.1177991444  0.0923310399
2
step 80
Ne -1.4675347531 -0.1192654933 -0.0934803650
Ne  2.4675347576  0.1192654933  0.0934803650
2
step 81
Ne -1.4667031593 -0.1207606121 -0.0946522400
Ne  2.4667031637  0.1207606121  0.0946522400
2
step 82
Ne -1.4658537938 -0.1222876825 -0.0958491587
Ne  2.4658537982  0.1222876825  0.0958491587
2
step 83
Ne -1.4649847786 -0.1238500810 -0.0970737676
Ne  2.4649847830  0.1238500810  0.0970737676
2
step 84
Ne -1.4640941392 -0.1254513574 -0.0983288490
Ne  2.4640941437  0.1254513574  0.0983288490
2
step 85
Ne -1.4631798214 -0.1270952052 -0.0996172979
Ne  2.4631798259  0.1270952052  0.0996172979
2
step 86
Ne -1.4622397117 -0.1287854241 -0.1009420924
Ne  2.4622397162  0.1287854241  0.1009420924
2
step 87
Ne -1.4612716637 -0.1305258733 -0.1023062576
Ne  2.4612716682  0.1305258733  0.1023062576
2
step 88
Ne -1.4602735276 -0.1323204177 -0.1037128226
Ne  2.4602735320  0.1323204177  0.1037128226
2
step 89
Ne -1.4592431845 -0.1341728668 -0.1051647733
Ne  2.4592431890  0.1341728668  0.1051647733
2
step 90
Ne -1.4581785835 -0.1360869081 -0.1066650000
Ne  2.4581785880  0.1360869081  0.1066650000
2
step 91
Ne -1.4570777800 -0.1380660377 -0.1082162429
Ne  2.4570777845  0.1380660377  0.1082162429
2
step 92
Ne -1.4559389744 -0.1401134910 -0.1098210381
Ne  2.4559389789  0.1401134910  0.1098210381
2
step 93
Ne -1.4547605491 -0.1422321766 -0.1114816651
Ne  2.4547605536  0.1422321766  0.1114816651
2
step 94
Ne -1.4535411016 -0.1444246158 -0.1132001002
Ne  2.4535411060  0.1444246158  0.1132001002
2
step 95
Ne -1.4522794725 -0.1466928929 -0.1149779772
Ne  2.4522794770  0.1466928929  0.1149779772
2
step 96
Ne -1.4509747672 -0.1490386166 -0.1168165569
Ne  2.4509747717  0.1490386166  0.1168165569
2
step 97
Ne -1.4496263695 -0.1514628948 -0.1187167075
Ne  2.4496263739  0.1514628948  0.1187167075
2
step 98
Ne -1.4482339477 -0.1539663236 -0.1206788965
Ne  2.4482339521  0.1539663236  0.1206788965
2
step 99
Ne -1.4467974532 -0.1565489904 -0.1227031924
Ne  2.4467974577  0.1565489905  0.1227031924
2
step 100
Ne -1.4453171123 -0.1592104886 -0.1247892762
Ne  2.4453171168  0.1592104886  0.1247892762
2
step 101
Ne -1.4437934120 -0.1619499425 -0.1269364618
Ne  2.4437934165  0.1619499425  0.1269364618
2
step 102
Ne -1.4422270815 -0.1647660409 -0.1291437214
Ne  2.4422270860  0.1647660409  0.1291437214
2
step 103
Ne -1.4406190714 -0.1676570750 -0.1314097157
Ne  2.4406190758  0.1676570750  0.1314097157
2
step 104
Ne -1.4389705304 -0.1706209795 -0.1337328258
Ne  2.4389705348  0.1706209795  0.1337328258
2
step 105
Ne -1.4372827824 -0.1736553738 -0.1361111858
Ne  2.4372827869  0.1736553738  0.1361111858
2
step 106
Ne -1.4355573044 -0.1767576028 -0.1385427148
Ne  2.4355573089  0.1767576028  0.1385427148
2
step 107
Ne -1.4337957048 -0.1799247748 -0.1410251461
Ne  2.4337957093  0.1799247748  0.1410251461
2
step 108
Ne -1.4319997046 -0.1831537953 -0.1435560543
Ne  2.4319997091  0.1831537953  0.1435560543
2
step 109
Ne -1.4301711204 -0.1864413986 -0.1461328797
Ne  2.4301711249  0.1864413986  0.1461328797
2
step 110
Ne -1.4283118492 -0.1897841738 -0.1487529489
Ne  2.4283118537  0.1897841738  0.1487529489
2
step 111
Ne -1.4264238558 -0.1931785886 -0.1514134933
Ne  2.4264238603  0.1931785886  0.1514134933
2
step 112
Ne -1.4245091616 -0.1966210086 -0.1541116641
Ne  2.4245091661  0.1966210086  0.1541116641
2
step 113
Ne -1.4225698354 -0.2001077144 -0.1568445462
Ne  2.4225698398  0.2001077144  0.1568445462
2
step 114
Ne -1.4206079853 -0.2036349157 -0.1596091688
Ne  2.4206079897  0.2036349157  0.1596091688
2
step 115
Ne -1.4186257518 -0.2071987644 -0.1624025155
Ne  2.4186257562  0.2071987644  0.1624025155
2
step 116
Ne -1.4166253015 -0.2107953648 -0.1652215330
Ne  2.4166253060  0.2107953648  0.1652215330
2
step 117
Ne -1.4146088217 -0.2144207846 -0.1680631392
Ne  2.4146088262  0.2144207846  0.1680631392
2
step 118
Ne -1.4125785148 -0.2180710641 -0.1709242305
Ne  2.4125785193  0.2180710641  0.1709242305
2
step 119
Ne -1.4105365934 -0.2217422255 -0.1738016890
Ne  2.4105365978  0.2217422255  0.1738016890
2
step 120
Ne -1.4084852746 -0.2254302821 -0.1766923900
Ne  2.4084852791  0.2254302821  0.1766923900
2
step 121
Ne -1.4064267755 -0.2291312483 -0.1795932095
Ne  2.4064267799  0.2291312483  0.1795932095
2
step 122
Ne -1.4043633069 -0.2328411491 -0.1825010320
Ne  2.4043633114  0.2328411491  0.1825010320
2
step 123
Ne -1.4022970681 -0.2365560305 -0.1854127582
Ne  2.4022970726  0.2365560305  0.1854127582
2
step 124
Ne -1.4002302406 -0.2402719703 -0.1883253141
Ne  2.4002302450  0.2402719703  0.1883253141
2
step 125
Ne -1.3981649817 -0.2439850899 -0.1912356594
Ne  2.3981649861  0.2439850899  0.1912356594
2
step 126
Ne -1.3961034183 -0.2476915653 -0.1941407970
Ne  2.3961034228  0.2476915653  0.1941407970
2
step 127
Ne -1.3940476397 -0.2513876403 -0.1970377828
Ne  2.3940476442  0.2513876403  0.1970377828
2
step 128
Ne -1.3919996907 -0.2550696385 -0.1999237352
Ne  2.3919996952  0.2550696385  0.1999237352
2
step 129
Ne -1.3899615645 -0.2587339764 -0.2027958454
Ne  2.3899615689  0.2587339764  0.2027958454
2
step 130
Ne -1.3879351953 -0.2623771764 -0.2056513878
Ne  2.3879351997  0.2623771764  0.2056513878
2
step 131
Ne -1.3859224511 -0.2659958800 -0.2084877299
Ne  2.3859224555  0.2659958800  0.2084877299
2
step 132
Ne -1.3839251266 -0.2695868606 -0.2113023426
Ne  2.3839251311  0.2695868606  0.2113023426
2
step 133
Ne -1.3819449362 -0.2731470360 -0.2140928102
Ne  2.3819449406  0.2731470360  0.2140928102
2
step 134
Ne -1.3799835068 -0.2766734810 -0.2168568399
Ne  2.3799835112  0.2766734810  0.2168568399
2
step 135
Ne -1.3780423719 -0.2801634386 -0.2195922708
Ne  2.3780423763  0.2801634386  0.2195922708
2
step 136
Ne -1.3761229652 -0.2836143312 -0.2222970824
Ne  2.3761229696  0.2836143312  0.2222970824
2
step 137
Ne -1.3742266151 -0.2870237704 -0.2249694029
Ne  2.3742266196  0.2870237704  0.2249694029
2
step 138
Ne -1.3723545401 -0.2903895657 -0.2276075153
Ne  2.3723545445  0.2903895657  0.2276075153
2
step 139
Ne -1.3705078439 -0.2937097322 -0.2302098638
Ne  2.3705078484  0.2937097322  0.2302098638
2
step 140
Ne -1.3686875129 -0.2969824971 -0.2327750588
Ne  2.3686875174  0.2969824971  0.2327750588
2
step 141
Ne -1.3668944128 -0.3002063036 -0.2353018803
Ne  2.3668944173  0.3002063036  0.2353018803
2
step 142
Ne -1.3651292873 -0.3033798149 -0.2377892803
Ne  2.3651292917  0.3033798149  0.2377892803
2
step 143
Ne -1.3633927571 -0.3065019145 -0.2402363839
Ne  2.3633927616  0.3065019145  0.2402363839
2
step 144
Ne -1.3616853206 -0.3095717068 -0.2426424890
Ne  2.3616853251  0.3095717068  0.2426424890
2
step 145
Ne -1.3600073548 -0.3125885140 -0.2450070642
Ne  2.3600073593  0.3125885140  0.2450070642
2
step 146
Ne -1.3583591176 -0.3155518722 -0.2473297462
Ne  2.3583591220  0.3155518722  0.2473297462
2
step 147
Ne -1.3567407510 -0.3184615261 -0.2496103347
Ne  2.3567407555  0.3184615261  0.2496103347
2
step 148
Ne -1.3551522856 -0.3213174210 -0.2518487867
Ne  2.3551522900  0.3213174210  0.2518487867
2
step 149
Ne -1.3535936450 -0.3241196937 -0.2540452098
Ne  2.3535936495  0.3241196937  0.2540452098
2
step 150
Ne -1.3520646523 -0.3268686628 -0.2561998534
Ne  2.3520646568  0.3268686628  0.2561998534
2
step 151
Ne -1.3505650360 -0.3295648161 -0.2583131000
Ne  2.3505650405  0.3295648161  0.2583131000
2
step 152
Ne -1.3490944374 -0.3322087987 -0.2603854552
Ne  2.3490944418  0.3322087987  0.2603854552
2
step 153
Ne -1.3476524178 -0.3348013993 -0.2624175370
Ne  2.3476524222  0.3348013993  0.2624175370
2
step 154
Ne -1.3462384664 -0.3373435360 -0.2644100653
Ne  2.3462384708  0.3373435360  0.2644100653
2
step 155
Ne -1.3448520085 -0.3398362424 -0.2663638501
Ne  2.3448520129  0.3398362424  0.2663638501
2
step 156
Ne -1.3434924132 -0.3422806528 -0.2682797804
Ne  2.3434924176  0.3422806528  0.2682797804
2
step 157
Ne -1.3421590013 -0.3446779880 -0.2701588132
Ne  2.3421590057  0.3446779880  0.2701588132
2
step 158
Ne -1.3408510534 -0.3470295415 -0.2720019622
Ne  2.3408510578  0.3470295415  0.2720019622
2
step 159
Ne -1.3395678173 -0.3493366660 -0.2738102878
Ne  2.3395678217  0.3493366660  0.2738102877
2
step 160
Ne -1.3383085148 -0.3516007601 -0.2755848861
Ne  2.3383085192  0.3516007601  0.2755848861
2
step 161
Ne -1.3370723490 -0.3538232571 -0.2773268806
Ne  2.3370723534  0.3538232571  0.2773268806
2
step 162
Ne -1.3358585098 -0.3560056130 -0.2790374124
Ne  2.3358585143  0.3560056130  0.2790374124
2
step 163
Ne -1.3346661804 -0.3581492968 -0.2807176331
Ne  2.3346661848  0.3581492968  0.2807176331
2
step 164
Ne -1.3334945415 -0.3602557811 -0.2823686967
Ne  2.3334945459  0.3602557811  0.2823686967
2
step 165
Ne -1.3323427767 -0.3623265338 -0.2839917539
Ne  2.3323427811  0.3623265338  0.2839917539
2
step 166
Ne -1.3312100762 -0.3643630109 -0.2855879459
Ne  2.3312100806  0.3643630109  0.2855879459
2
step 167
Ne -1.3300956403 -0.3663666502 -0.2871583996
Ne  2.3300956447  0.3663666502  0.2871583996
2
step 168
Ne -1.3289986822 -0.3683388662 -0.2887042236
Ne  2.3289986866  0.3683388662  0.2887042236
2
step 169
Ne -1.3279184310 -0.3702810450 -0.2902265045
Ne  2.3279184354  0.3702810450  0.2902265045
2
step 170
Ne -1.3268541331 -0.3721945414 -0.2917263042
Ne  2.3268541375  0.3721945414  0.2917263042
2
step 171
Ne -1.3258050542 -0.3740806756 -0.2932046573
Ne  2.3258050586  0.3740806756  0.2932046573
2
step 172
Ne -1.3247704805 -0.3759407309 -0.2946625698
Ne  2.3247704850  0.3759407309  0.2946625698
2
step 173
Ne -1.3237497195 -0.3777759525 -0.2961010175
Ne  2.3237497240  0.3777759525  0.2961010175
2
step 174
Ne -1.3227421006 -0.3795875460 -0.2975209456
Ne  2.3227421051  0.3795875460  0.2975209456
2
step 175
Ne -1.3217469754 -0.3813766771 -0.2989232677
Ne  2.3217469798  0.3813766771  0.2989232677
2
step 176
Ne -1.3207637178 -0.3831444716 -0.3003088660
Ne  2.3207637222  0.3831444716  0.3003088660
2
step 177
Ne -1.3197917240 -0.3848920149 -0.3016785915
Ne  2.3197917284  0.3848920149  0.3016785915
2
step 178
Ne -1.3188304120 -0.3866203534 -0.3030332643
Ne  2.3188304164  0.3866203534  0.3030332643
2
step 179
Ne -1.3178792214 -0.3883304946 -0.3043736740
Ne  2.3178792259  0.3883304946  0.3043736740
2
step 180
Ne -1.3169376129 -0.3900234084 -0.3057005808
Ne  2.3169376174  0.3900234084  0.3057005808
2
step 181
Ne -1.3160050675 -0.3917000277 -0.3070147160
Ne  2.3160050719  0.3917000277  0.3070147160
2
step 182
Ne -1.3150810857 -0.3933612503 -0.3083167833
Ne  2.3150810901  0.3933612503  0.3083167833
2
step 183
Ne -1.3141651873 -0.3950079399 -0.3096074596
Ne  2.3141651918  0.3950079399  0.3096074596
2
step 184
Ne -1.3132569102 -0.3966409273 -0.3108873961
Ne  2.3132569146  0.3966409273  0.3108873961
2
step 185
Ne -1.3123558095 -0.3982610123 -0.3121572196
Ne  2.3123558139  0.3982610123  0.3121572196
2
step 186
Ne -1.3114614570 -0.3998689645 -0.3134175336
Ne  2.3114614615  0.3998689645  0.3134175336
2
step 187
Ne -1.3105734404 -0.4014655257 -0.3146689192
Ne  2.3105734448  0.4014655257  0.3146689192
2
step 188
Ne -1.3096913620 -0.4030514105 -0.3159119366
Ne  2.3096913664  0.4030514105  0.3159119366
2
step 189
Ne -1.3088148385 -0.4046273082 -0.3171471262
Ne  2.3088148429  0.4046273082  0.3171471262
2
step 190
Ne -1.3079434997 -0.4061938843 -0.3183750095
Ne  2.3079435041  0.4061938843  0.3183750095
2
step 191
Ne -1.3070769880 -0.4077517818 -0.3195960905
Ne  2.3070769924  0.4077517818  0.3195960905
2
step 192
Ne -1.3062149576 -0.4093016224 -0.3208108564
Ne  2.3062149621  0.4093016224  0.3208108564
2
step 193
Ne -1.3053570737 -0.4108440081 -0.3220197793
Ne  2.3053570781  0.4108440081  0.3220197793
2
step 194
Ne -1.3045030115 -0.4123795226 -0.3232233165
Ne  2.3045030160  0.4123795226  0.3232233165
2
step 195
Ne -1.3036524562 -0.4139087323 -0.3244219120
Ne  2.3036524606  0.4139087323  0.3244219119
2
step 196
Ne -1.3028051015 -0.4154321876 -0.3256159971
Ne  2.3028051059  0.4154321876  0.3256159971
2
step 197
Ne -1.3019606495 -0.4169504241 -0.3268059918
Ne  2.3019606539  0.4169504241  0.3268059918
2
step 198
Ne -1.3011188097 -0.4184639642 -0.3279923054
Ne  2.3011188141  0.4184639642  0.3279923054
2
step 199
Ne -1.3002792986 -0.4199733173 -0.3291753373
Ne  2.3002793031  0.4199733173  0.3291753373
2
step 200
Ne -1.2994418392 -0.4214789819 -0.3303554781
Ne  2.2994418436  0.4214789819  0.3303554781
2
step 201
Ne -1.2986061599 -0.4229814460 -0.3315331104
Ne  2.2986061643  0.4229814460  0.3315331104
2
step 202
Ne -1.2977719945 -0.4244811883 -0.3327086093
Ne  2.2977719989  0.4244811883  0.3327086093
2
step 203
Ne -1.2969390811 -0.4259786796 -0.3338823438
Ne  2.2969390856  0.4259786796  0.3338823438
2
step 204
Ne -1.2961071622 -0.4274743830 -0.3350546771
Ne  2.2961071666  0.4274743830  0.3350546771
2
step 205
Ne -1.2952759833 -0.4289687559 -0.3362259675
Ne  2.2952759877  0.4289687559  0.3362259675
2
step 206
Ne -1.2944452931 -0.4304622501 -0.3373965691
Ne  2.2944452975  0.4304622501  0.3373965691
2
step 207
Ne -1.2936148426 -0.4319553134 -0.3385668330
Ne  2.2936148470  0.4319553134  0.3385668330
2
step 208
Ne -1.2927843845 -0.4334483903 -0.3397371075
Ne  2.2927843889  0.4334483903  0.3397371075
2
step 209
Ne -1.2919536730 -0.4349419229 -0.3409077393
Ne  2.2919536774  0.4349419229  0.3409077393
2
step 210
Ne -1.2911224626 -0.4364363524 -0.3420790740
Ne  2.2911224670  0.4364363524  0.3420790740
2
step 211
Ne -1.2902905082 -0.4379321196 -0.3432514573
Ne  2.2902905126  0.4379321196  0.3432514573
2
step 212
Ne -1.2894575639 -0.4394296664 -0.3444252353
Ne  2.2894575684  0.4394296664  0.3444252353
2
step 213
Ne -1.2886233830 -0.4409294366 -0.3456007561
Ne  2.2886233874  0.4409294366  0.3456007561
2
step 214
Ne -1.2877877167 -0.4424318774 -0.3467783701
Ne  2.2877877211  0.4424318774  0.3467783701
2
step 215
Ne -1.2869503137 -0.4439374405 -0.3479584314
Ne  2.2869503181  0.4439374405  0.3479584314
2
step 216
Ne -1.2861109196 -0.4454465835 -0.3491412986
Ne  2.2861109240  0.4454465835  0.3491412986
2
step 217
Ne -1.2852692758 -0.4469597712 -0.3503273360
Ne  2.2852692802  0.4469597712  0.3503273360
2
step 218
Ne -1.2844251188 -0.4484774774 -0.3515169150
Ne  2.2844251232  0.4484774774  0.3515169150
2
step 219
Ne -1.2835781792 -0.4500001864 -0.3527104153
Ne  2.2835781836  0.4500001864  0.3527104153
2
step 220
Ne -1.2827281807 -0.4515283950 -0.3539082261
Ne  2.2827281851  0.4515283950  0.3539082261
2
step 221
Ne -1.2818748388 -0.4530626146 -0.3551107483
Ne  2.2818748433  0.4530626146  0.3551107483
2
step 222
Ne -1.2810178600 -0.4546033732 -0.3563183958
Ne  2.2810178644  0.4546033732  0.3563183958
2
step 223
Ne -1.2801569396 -0.4561512182 -0.3575315977
Ne  2.2801569440  0.4561512182  0.3575315977
2
step 224
Ne -1.2792917608 -0.4577067193 -0.3587508004
Ne  2.2792917652  0.4577067193  0.3587508004
2
step 225
Ne -1.2784219929 -0.4592704714 -0.3599764702
Ne  2.2784219973  0.4592704714  0.3599764702
2
step 226
Ne -1.2775472887 -0.4608430982 -0.3612090960
Ne  2.2775472931  0.4608430982  0.3612090960
2
step 227
Ne -1.2766672829 -0.4624252567 -0.3624491928
Ne  2.2766672873  0.4624252567  0.3624491928
2
step 228
Ne -1.2757815894 -0.4640176413 -0.3636973048
Ne  2.2757815938  0.4640176413  0.3636973048
2
step 229
Ne -1.2748897980 -0.4656209891 -0.3649540098
Ne  2.2748898024  0.4656209891  0.3649540098
2
step 230
Ne -1.2739914717 -0.4672360862 -0.3662199238
Ne  2.2739914761  0.4672360862  0.3662199238
2
step 231
Ne -1.2730861423 -0.4688637739 -0.3674957064
Ne  2.2730861467  0.4688637739  0.3674957064
2
step 232
Ne -1.2721733069 -0.4705049568 -0.3687820666
Ne  2.2721733113  0.4705049568  0.3687820666
2
step 233
Ne -1.2712524221 -0.4721606115 -0.3700797697
Ne  2.2712524265  0.4721606115  0.3700797697
2
step 234
Ne -1.2703228992 -0.4738317967 -0.3713896457
Ne  2.2703229036  0.4738317967  0.3713896457
2
step 235
Ne -1.2693840974 -0.4755196645 -0.3727125975
Ne  2.2693841018  0.4755196645  0.3727125975
2
step 236
Ne -1.2684353166 -0.4772254734 -0.3740496115
Ne  2.2684353210  0.4772254734  0.3740496115
2
step 237
Ne -1.2674757895 -0.4789506031 -0.3754017692
Ne  2.2674757939  0.4789506031  0.3754017692
2
step 238
Ne -1.2665046719 -0.4806965711 -0.3767702600
Ne  2.2665046763  0.4806965711  0.3767702600
2
step 239
Ne -1.2655210328 -0.4824650516 -0.3781563960
Ne  2.2655210372  0.4824650516  0.3781563960
2
step 240
Ne -1.2645238425 -0.4842578958 -0.3795616284
Ne  2.2645238469  0.4842578958  0.3795616284
2
step 241
Ne -1.2635119598 -0.4860771553 -0.3809875651
Ne  2.2635119642  0.4860771553  0.3809875651
2
step 242
Ne -1.2624841184 -0.4879251070 -0.3824359907
Ne  2.2624841228  0.4879251070  0.3824359907
2
step 243
Ne -1.2614389116 -0.4898042798 -0.3839088875
Ne  2.2614389160  0.4898042798  0.3839088875
2
step 244
Ne -1.2603747769 -0.4917174830 -0.3854084573
Ne  2.2603747813  0.4917174830  0.3854084573
2
step 245
Ne -1.2592899800 -0.4936678347 -0.3869371441
Ne  2.2592899844  0.4936678347  0.3869371441
2
step 246
Ne -1.2581825991 -0.4956587902 -0.3884976562
Ne  2.2581826035  0.4956587902  0.3884976562
2
step 247
Ne -1.2570505106 -0.4976941672 -0.3900929859
Ne  2.2570505150  0.4976941672  0.3900929859
2
step 248
Ne -1.2558913775 -0.4997781677 -0.3917264268
Ne  2.2558913819  0.4997781677  0.3917264268
2
step 249
Ne -1.2547026412 -0.5019153916 -0.3934015841
Ne  2.2547026456  0.5019153916  0.3934015841
2
step 250
Ne -1.2534815200 -0.5041108401 -0.3951223780
Ne  2.2534815244  0.5041108401  0.3951223780
2
step 251
Ne -1.2522250151 -0.5063699049 -0.3968930343
Ne  2.2522250195  0.5063699049  0.3968930343
2
step 252
Ne -1.2509299275 -0.5086983374 -0.3987180611
Ne  2.2509299319  0.5086983374  0.3987180611
2
step 253
Ne -1.2495928875 -0.5111021960 -0.4006022069
Ne  2.2495928919  0.5111021960  0.4006022069
2
step 254
Ne -1.2482103992 -0.5135877658 -0.4025503980
Ne  2.2482104036  0.5135877658  0.4025503980
2
step 255
Ne -1.2467789020 -0.5161614485 -0.4045676520
Ne  2.2467789064  0.5161614485  0.4045676520
2
step 256
Ne -1.2452948484 -0.5188296221 -0.4066589681
Ne  2.2452948528  0.5188296221  0.4066589681
2
step 257
Ne -1.2437547983 -0.5215984716 -0.4088291941
Ne  2.2437548027  0.5215984716  0.4088291941
2
step 258
Ne -1.2421555261 -0.5244737964 -0.4110828753
Ne  2.2421555305  0.5244737964  0.4110828753
2
step 259
Ne -1.2404941366 -0.5274608016 -0.4134240918
Ne  2.2404941410  0.5274608016  0.4134240918
2
step 260
Ne -1.2387681826 -0.5305638869 -0.4158562919
Ne  2.2387681870  0.5305638869  0.4158562919
2
step 261
Ne -1.2369757772 -0.5337864449 -0.4183821348
Ne  2.2369757816  0.5337864449  0.4183821348
2
step 262
Ne -1.2351156919 -0.5371306844 -0.4210033517
Ne  2.2351156963  0.5371306844  0.4210033517
2
step 263
Ne -1.2331874339 -0.5405974914 -0.4237206371
Ne  2.2331874382  0.5405974914  0.4237206371
2
step 264
Ne -1.2311912962 -0.5441863389 -0.4265335779
Ne  2.2311913006  0.5441863389  0.4265335779
2
step 265
Ne -1.2291283781 -0.5478952505 -0.4294406251
Ne  2.2291283825  0.5478952505  0.4294406250
2
step 266
Ne -1.2270005746 -0.5517208194 -0.4324391083
Ne  2.2270005790  0.5517208194  0.4324391083
2
step 267
Ne -1.2248105370 -0.5556582788 -0.4355252913
Ne  2.2248105413  0.5556582788  0.4355252913
2
step 268
Ne -1.2225616097 -0.5597016156 -0.4386944611
Ne  2.2225616141  0.5597016156  0.4386944611
2
step 269
Ne -1.2202577488 -0.5638437175 -0.4419410430
Ne  2.2202577532  0.5638437175  0.4419410430
2
step 270
Ne -1.2179034274 -0.5680765420 -0.4452587334
Ne  2.2179034317  0.5680765420  0.4452587334
2
step 271
Ne -1.2155035360 -0.5723912965 -0.4486406406
Ne  2.2155035404  0.5723912965  0.4486406406
2
step 272
Ne -1.2130632817 -0.5767786195 -0.4520794270
Ne  2.2130632860  0.5767786195  0.4520794270
2
step 273
Ne -1.2105880905 -0.5812287553 -0.4555674460
Ne  2.2105880949  0.5812287553  0.4555674460
2
step 274
Ne -1.2080835169 -0.5857317175 -0.4590968706
Ne  2.2080835213  0.5857317175  0.4590968706
2
step 275
Ne -1.2055551613 -0.5902774374 -0.4626598085
Ne  2.2055551657  0.5902774374  0.4626598085
2
step 276
Ne -1.2030085971 -0.5948558945 -0.4662484059
Ne  2.2030086015  0.5948558944  0.4662484059
2
step 277
Ne -1.2004493069 -0.5994572316 -0.4698549367
Ne  2.2004493112  0.5994572316  0.4698549367
2
step 278
Ne -1.1978826282 -0.6040718524 -0.4734718792
Ne  2.1978826325  0.6040718524  0.4734718792
2
step 279
Ne -1.1953137075 -0.6086905041 -0.4770919812
Ne  2.1953137119  0.6086905041  0.4770919812
2
step 280
Ne -1.1927474619 -0.6133043462 -0.4807083134
Ne  2.1927474663  0.6133043462  0.4807083134
2
step 281
Ne -1.1901885477 -0.6179050074 -0.4843143144
Ne  2.1901885520  0.6179050074  0.4843143144
2
step 282
Ne -1.1876413346 -0.6224846309 -0.4879038260
Ne  2.1876413390  0.6224846309  0.4879038260
2
step 283
Ne -1.1851098866 -0.6270359108 -0.4914711219
Ne  2.1851098909  0.6270359108  0.4914711219
2
step 284
Ne -1.1825979457 -0.6315521186 -0.4950109283
Ne  2.1825979501  0.6315521186  0.4950109283
2
step 285
Ne -1.1801089224 -0.6360271231 -0.4985184396
Ne  2.1801089268  0.6360271231  0.4985184396
2
step 286
Ne -1.1776458884 -0.6404554017 -0.5019893269
Ne  2.1776458928  0.6404554017  0.5019893269
2
step 287
Ne -1.1752115742 -0.6448320450 -0.5054197426
Ne  2.1752115785  0.6448320450  0.5054197426
2
step 288
Ne -1.1728083700 -0.6491527557 -0.5088063182
Ne  2.1728083744  0.6491527557  0.5088063182
2
step 289
Ne -1.1704383304 -0.6534138399 -0.5121461586
Ne  2.1704383348  0.6534138399  0.5121461585
2
step 290
Ne -1.1681031820 -0.6576121934 -0.5154368306
Ne  2.1681031864  0.6576121934  0.5154368306
2
step 291
Ne -1.1658043341 -0.6617452825 -0.5186763483
Ne  2.1658043384  0.6617452825  0.5186763482
2
step 292
Ne -1.1635428923 -0.6658111191 -0.5218631534
Ne  2.1635428967  0.6658111191  0.5218631534
2
step 293
Ne -1.1613196750 -0.6698082322 -0.5249960930
Ne  2.1613196794  0.6698082322  0.5249960930
2
step 294
Ne -1.1591352313 -0.6737356345 -0.5280743933
Ne  2.1591352356  0.6737356345  0.5280743933
2
step 295
Ne -1.1569898608 -0.6775927870 -0.5310976318
Ne  2.1569898652  0.6775927870  0.5310976317
2
step 296
Ne -1.1548836359 -0.6813795600 -0.5340657067
Ne  2.1548836403  0.6813795600  0.5340657066
2
step 297
Ne -1.1528164232 -0.6850961931 -0.5369788059
Ne  2.1528164275  0.6850961931  0.5369788059
2
step 298