2
step 0
Ne -1.5338709206  0.0000000000  0.0000000000
Ne  2.5338709251  0.0000000000  0.0000000000
2
step 1
Ne -1.5326637071 -0.0021704437 -0.0017011950
Ne  2.5326637116  0.0021704437  0.0017011950
2
step 2
Ne -1.5314763143 -0.0043052518 -0.0033744589
Ne  2.5314763188  0.0043052518  0.0033744589
2
step 3
Ne -1.5303083747 -0.0064050851 -0.0050203095
Ne  2.5303083792  0.0064050851  0.0050203095
2
step 4
Ne -1.5291594985 -0.0084706444 -0.0066392962
Ne  2.5291595029  0.0084706444  0.0066392962
2
step 5
Ne -1.5280292765 -0.0105026653 -0.0082319954
Ne  2.5280292810  0.0105026653  0.0082319954
2
step 6
Ne -1.5269172829 -0.0125019135 -0.0097990073
Ne  2.5269172874  0.0125019135  0.0097990073
2
step 7
Ne -1.5258230778 -0.0144691800 -0.0113409519
Ne  2.5258230823  0.0144691800  0.0113409519
2
step 8
Ne -1.5247462096 -0.0164052764 -0.0128584655
Ne  2.5247462140  0.0164052764  0.0128584655
2
step 9
Ne -1.5236862176 -0.0183110312 -0.0143521972
Ne  2.5236862220  0.0183110312  0.0143521972
2
step 10
Ne -1.5226426341 -0.0201872851 -0.0158228061
Ne  2.5226426386  0.0201872851  0.0158228061
2
step 11
Ne -1.5216149869 -0.0220348874 -0.0172709580
Ne  2.5216149914  0.0220348874  0.0172709580
2
step 12
Ne -1.5206028004 -0.0238546928 -0.0186973225
Ne  2.5206028049  0.0238546928  0.0186973225
2
step 13
Ne -1.5196055984 -0.0256475578 -0.0201025712
Ne  2.5196056029  0.0256475578  0.0201025712
2
step 14
Ne -1.5186229049 -0.0274143380 -0.0214873745
Ne  2.5186229094  0.0274143380  0.0214873745
2
step 15
Ne -1.5176542461 -0.0291558852 -0.0228524002
Ne  2.5176542506  0.0291558852  0.0228524002
2
step 16
Ne -1.5166991516 -0.0308730453 -0.0241983114
Ne  2.5166991561  0.0308730453  0.0241983114
2
step 17
Ne -1.5157571554 -0.0325666560 -0.0255257645
Ne  2.5157571598  0.0325666560  0.0255257645
2
step 18
Ne -1.5148277970 -0.0342375451 -0.0268354084
Ne  2.5148278015  0.0342375451  0.0268354084
2
step 19
Ne -1.5139106226 -0.0358865288 -0.0281278827
Ne  2.5139106271  0.0358865288  0.0281278827
2
step 20
Ne -1.5130051855 -0.0375144101 -0.0294038171
Ne  2.5130051900  0.0375144101  0.0294038171
2
step 21
Ne -1.5121110467 -0.0391219782 -0.0306638299
Ne  2.5121110511  0.0391219782  0.0306638299
2
step 22
Ne -1.5112277757 -0.0407100071 -0.0319085279
Ne  2.5112277801  0.0407100071  0.0319085279
2
step 23
Ne -1.5103549508 -0.0422792550 -0.0331385054
Ne  2.5103549553  0.0422792550  0.0331385054
2
step 24
Ne -1.5094921594 -0.0438304636 -0.0343543436
Ne  2.5094921639  0.0438304636  0.0343543436
2
step 25
Ne -1.5086389984 -0.0453643580 -0.0355566110
Ne  2.5086390029  0.0453643580  0.0355566110
2
step 26
Ne -1.5077950739 -0.0468816460 -0.0367458622
Ne  2.5077950784  0.0468816460  0.0367458622
2
step 27
Ne -1.5069600019 -0.0483830182 -0.0379226386
Ne  2.5069600064  0.0483830182  0.0379226386
2
step 28
Ne -1.5061334079 -0.0498691478 -0.0390874679
Ne  2.5061334123  0.0498691478  0.0390874679
2
step 29
Ne -1.5053149269 -0.0513406910 -0.0402408643
Ne  2.5053149314  0.0513406910  0.0402408643
2
step 30
Ne -1.5045042036 -0.0527982866 -0.0413833286
Ne  2.5045042081  0.0527982866  0.0413833286
2
step 31
Ne -1.5037008921 -0.0542425569 -0.0425153485
Ne  2.5037008965  0.0542425569  0.0425153485
2
step 32
Ne -1.5029046553 -0.0556741072 -0.0436373986
Ne  2.5029046598  0.0556741072  0.0436373986
2
step 33
Ne -1.5021151657 -0.0570935271 -0.0447499407
Ne  2.5021151701  0.0570935271  0.0447499407
2
step 34
Ne -1.5013321040 -0.0585013901 -0.0458534245
Ne  2.5013321085  0.0585013901  0.0458534245
2
step 35
Ne -1.5005551599 -0.0598982544 -0.0469482877
Ne  2.5005551643  0.0598982544  0.0469482877
2
step 36
Ne -1.4997840309 -0.0612846637 -0.0480349561
Ne  2.4997840354  0.0612846637  0.0480349561
2
step 37
Ne -1.4990184228 -0.0626611471 -0.0491138445
Ne  2.4990184273  0.0626611471  0.0491138445
2
step 38
Ne -1.4982580487 -0.0640282201 -0.0501853572
Ne  2.4982580532  0.0640282201  0.0501853572
2
step 39
Ne -1.4975026292 -0.0653863854 -0.0512498880
Ne  2.4975026337  0.0653863854  0.0512498880
2
step 40
Ne -1.4967518917 -0.0667361329 -0.0523078209
Ne  2.4967518962  0.0667361329  0.0523078209
2
step 41
Ne -1.4960055702 -0.0680779409 -0.0533595308
Ne  2.4960055747  0.0680779409  0.0533595308
2
step 42
Ne -1.4952634048 -0.0694122767 -0.0544053840
Ne  2.4952634093  0.0694122767  0.0544053840
2
step 43
Ne -1.4945251414 -0.0707395972 -0.0554457386
Ne  2.4945251459  0.0707395972  0.0554457386
2
step 44
Ne -1.4937905312 -0.0720603496 -0.0564809451
Ne  2.4937905356  0.0720603496  0.0564809451
2
step 45
Ne -1.4930593303 -0.0733749723 -0.0575113472
Ne  2.4930593347  0.0733749723  0.0575113472
2
step 46
Ne -1.4923312992 -0.0746838961 -0.0585372824
Ne  2.4923313037  0.0746838961  0.0585372824
2
step 47
Ne -1.4916062025 -0.0759875442 -0.0595590826
Ne  2.4916062069  0.0759875442  0.0595590826
2
step 48
Ne -1.4908838079 -0.0772863341 -0.0605770749
Ne  2.4908838124  0.0772863341  0.0605770749
2
step 49
Ne -1.4901638862 -0.0785806780 -0.0615915824
Ne  2.4901638907  0.0785806780  0.0615915824
2
step 50
Ne -1.4894462103 -0.0798709842 -0.0626029252
Ne  2.4894462148  0.0798709842  0.0626029252
2
step 51
Ne -1.4887305546 -0.0811576583 -0.0636114211
Ne  2.4887305591  0.0811576583  0.0636114211
2
step 52
Ne -1.4880166944 -0.0824411044 -0.0646173870
Ne  2.4880166989  0.0824411044  0.0646173870
2
step 53
Ne -1.4873044048 -0.0837217267 -0.0656211394
Ne  2.4873044092  0.0837217267  0.0656211394
2
step 54
Ne -1.4865934600 -0.0849999310 -0.0666229967
Ne  2.4865934645  0.0849999310  0.0666229967
2
step 55
Ne -1.4858836324 -0.0862761268 -0.0676232798
Ne  2.4858836369  0.0862761268  0.0676232798
2
step 56
Ne -1.4851746910 -0.0875507293 -0.0686223140
Ne  2.4851746955  0.0875507293  0.0686223140
2
step 57
Ne -1.4844664004 -0.0888241617 -0.0696204311
Ne  2.4844664049  0.0888241617  0.0696204311
2
step 58
Ne -1.4837585191 -0.0900968583 -0.0706179714
Ne  2.4837585236  0.0900968583  0.0706179714
2
step 59
Ne -1.4830507979 -0.0913692671 -0.0716152862
Ne  2.4830508024  0.0913692671  0.0716152862
2
step 60
Ne -1.4823429776 -0.0926418539 -0.0726127405
Ne  2.4823429821  0.0926418539  0.0726127405
2
step 61
Ne -1.4816347871 -0.0939151065 -0.0736107167
Ne  2.4816347915  0.0939151065  0.0736107167
2
step 62
Ne -1.4809259401 -0.0951895392 -0.0746096178
Ne  2.4809259446  0.0951895392  0.0746096178
2
step 63
Ne -1.4802161328 -0.0964656986 -0.0756098723
Ne  2.4802161372  0.0964656986  0.0756098723
2
step 64
Ne -1.4795050395 -0.0977441700 -0.0766119389
Ne  2.4795050439  0.0977441700  0.0766119389
2
step 65
Ne -1.4787923091 -0.0990255847 -0.0776163125
Ne  2.4787923136  0.0990255847  0.0776163125
2
step 66
Ne -1.4780775602 -0.1003106284 -0.0786235306
Ne  2.4780775647  0.1003106284  0.0786235306
2
step 67
Ne -1.4773603760 -0.1016000507 -0.0796341805
Ne  2.4773603805  0.1016000507  0.0796341805
2
step 68
Ne -1.4766402981 -0.1028946754 -0.0806489081
Ne  2.4766403026  0.1028946754  0.0806489081
2
step 69
Ne -1.4759168203 -0.1041954129 -0.0816684270
Ne  2.4759168248  0.1041954129  0.0816684270
2
step 70
Ne -1.4751893811 -0.1055032725 -0.0826935281
Ne  2.4751893856  0.1055032725  0.0826935281
2
step 71
Ne -1.4744573562 -0.1068193768 -0.0837250914
Ne  2.4744573607  0.1068193768  0.0837250914
2
step 72
Ne -1.4737200502 -0.1081449759 -0.0847640968
Ne  2.4737200547  0.1081449759  0.0847640968
2
step 73
Ne -1.4729766881 -0.1094814631 -0.0858116363
Ne  2.4729766926  0.1094814631  0.0858116363
2
step 74
Ne -1.4722264070 -0.1108303901 -0.0868689261
Ne  2.4722264115  0.1108303901  0.0868689261
2
step 75
Ne -1.4714682475 -0.1121934817 -0.0879373181
Ne  2.4714682520  0.1121934817  0.0879373181
2
step 76
Ne -1.4707011459 -0.1135726501 -0.0890183111
Ne  2.4707011504  0.1135726501  0.0890183111
2
step 77
Ne -1.4699239277 -0.1149700072 -0.0901135604
Ne  2.4699239322  0.1149700072  0.0901135604
2
step 78
Ne -1.4691353019 -0.1163878740 -0.0912248852
Ne  2.4691353064  0.1163878740  0.0912248852
2
step 79
Ne -1.4683338570 -0.1178287881 -0.0923542746
Ne  2.4683338615  0.1178287881  0.0923542746
2
step 80
Ne -1.4675180599 -0.1192955060 -0.0935038890
Ne  2.4675180644  0.1192955060  0.0935038890
2
step 81
Ne -1.4666862568 -0.1207910011 -0.0946760589
Ne  2.4666862612  0.1207910011  0.0946760589
2
step 82
Ne -1.4658366775 -0.1223184557 -0.0958732788
Ne  2.4658366820  0.1223184557  0.0958732788
2
step 83
Ne -1.4649674436 -0.1238812474 -0.0970981958
Ne  2.4649674481  0.1238812474  0.0970981958
2
step 84
Ne -1.4640765802 -0.1254829267 -0.0983535930
Ne  2.4640765846  0.1254829267  0.0983535930
2
step 85
Ne -1.4631620322 -0.1271271883 -0.0996423662
Ne  2.4631620367  0.1271271883  0.0996423662
2
step 86
Ne -1.4622216860 -0.1288178325 -0.1009674941
Ne  2.4622216905  0.1288178325  0.1009674941
2
step 87
Ne -1.4612533944 -0.1305587196 -0.1023320025
Ne  2.4612533989  0.1305587196  0.1023320025
2
step 88
Ne -1.4602550070 -0.1323537157 -0.1037389215
Ne  2.4602550115  0.1323537157  0.1037389215
2
step 89
Ne -1.4592244047 -0.1342066309 -0.1051912376
Ne  2.4592244092  0.1342066309  0.1051912376
2
step 90
Ne -1.4581595358 -0.1361211539 -0.1066918418
Ne  2.4581595403  0.1361211539  0.1066918418
2
step 91
Ne -1.4570584553 -0.1381007815 -0.1082434751
Ne  2.4570584598  0.1381007815  0.1082434751
2
step 92
Ne -1.4559193632 -0.1401487501 -0.1098486741
Ne  2.4559193676  0.1401487501  0.1098486741
2
step 93
Ne -1.4547406413 -0.1422679687 -0.1115097190
Ne  2.4547406458  0.1422679687  0.1115097190
2
step 94
Ne -1.4535208869 -0.1444609597 -0.1132285866
Ne  2.4535208914  0.1444609597  0.1132285866
2
step 95
Ne -1.4522589403 -0.1467298076 -0.1150069110
Ne  2.4522589448  0.1467298076  0.1150069110
2
step 96
Ne -1.4509539067 -0.1490761216 -0.1168459533
Ne  2.4509539112  0.1490761216  0.1168459533
2
step 97
Ne -1.4496051696 -0.1515010098 -0.1187465821
Ne  2.4496051741  0.1515010098  0.1187465821
2
step 98
Ne -1.4482123974 -0.1540050687 -0.1207092649
Ne  2.4482124019  0.1540050687  0.1207092649
2
step 99
Ne -1.4467755415 -0.1565883854 -0.1227340701
Ne  2.4467755460  0.1565883854  0.1227340701
2
step 100
Ne -1.4452948281 -0.1592505533 -0.1248206789
Ne  2.4452948326  0.1592505533  0.1248206789
2
step 101
Ne -1.4437707443 -0.1619906966 -0.1269684049
Ne  2.4437707488  0.1619906966  0.1269684049
2
step 102
Ne -1.4422040197 -0.1648075037 -0.1291762199
Ne  2.4422040242  0.1648075037  0.1291762199
2
step 103
Ne -1.4405956049 -0.1676992653 -0.1314427845
Ne  2.4405956094  0.1676992653  0.1314427845
2
step 104
Ne -1.4389466490 -0.1706639156 -0.1337664791
Ne  2.4389466535  0.1706639156  0.1337664791
2
step 105
Ne -1.4372584764 -0.1736990735 -0.1361454377
Ne  2.4372584809  0.1736990735  0.1361454377
2
step 106
Ne -1.4355325642 -0.1768020832 -0.1385775786
Ne  2.4355325686  0.1768020832  0.1385775786
2
step 107
Ne -1.4337705212 -0.1799700522 -0.1410606346
Ne  2.4337705257  0.1799700522  0.1410606346
2
step 108
Ne -1.4319740691 -0.1831998853 -0.1435921797
Ne  2.4319740736  0.1831998853  0.1435921797
2
step 109
Ne -1.4301450247 -0.1864883158 -0.1461696535
Ne  2.4301450292  0.1864883158  0.1461696535
2
step 110
Ne -1.4282852857 -0.1898319322 -0.1487903820
Ne  2.4282852902  0.1898319322  0.1487903820
2
step 111
Ne -1.4263968172 -0.1932272012 -0.1514515959
Ne  2.4263968216  0.1932272012  0.1514515959
2
step 112
Ne -1.4244816411 -0.1966704875 -0.1541504457
Ne  2.4244816456  0.1966704875  0.1541504457
2
step 113
Ne -1.4225418269 -0.2001580707 -0.1568840155
Ne  2.4225418314  0.2001580707  0.1568840155
2
step 114
Ne -1.4205794831 -0.2036861597 -0.1596493338
Ne  2.4205794876  0.2036861597  0.1596493338
2
step 115
Ne -1.4185967507 -0.2072509052 -0.1624433834
Ne  2.4185967552  0.2072509052  0.1624433834
2
step 116
Ne -1.4165957971 -0.2108484106 -0.1652631104
Ne  2.4165958016  0.2108484106  0.1652631104
2
step 117
Ne -1.4145788099 -0.2144747428 -0.1681054317
Ne  2.4145788143  0.2144747428  0.1681054317
2
step 118
Ne -1.4125479921 -0.2181259409 -0.1709672429
Ne  2.4125479965  0.2181259409  0.1709672429
2
step 119
Ne -1.4105055567 -0.2217980261 -0.1738454255
Ne  2.4105055612  0.2217980261  0.1738454255
2
step 120
Ne -1.4084537218 -0.2254870108 -0.1767368539
Ne  2.4084537263  0.2254870108  0.1767368539
2
step 121
Ne -1.4063947046 -0.2291889084 -0.1796384035
Ne  2.4063947091  0.2291889084  0.1796384035
2
step 122
Ne -1.4043307168 -0.2328997427 -0.1825469577
Ne  2.4043307213  0.2328997427  0.1825469576
2
step 123
Ne -1.4022639580 -0.2366155589 -0.1854594166
Ne  2.4022639625  0.2366155589  0.1854594166
2
step 124
Ne -1.4001966104 -0.2403324339 -0.1883727054
Ne  2.4001966149  0.2403324339  0.1883727054
2
step 125
Ne -1.3981308318 -0.2440464878 -0.1912837831
Ne  2.3981308363  0.2440464878  0.1912837831
2
step 126
Ne -1.3960687496 -0.2477538960 -0.1941896518
Ne  2.3960687541  0.2477538960  0.1941896518
2
step 127
Ne -1.3940124537 -0.2514509011 -0.1970873666
Ne  2.3940124582  0.2514509011  0.1970873666
2
step 128
Ne -1.3919639894 -0.2551338258 -0.1999740453
Ne  2.3919639938  0.2551338258  0.1999740453
2
step 129
Ne -1.3899253502 -0.2587990858 -0.2028468782
Ne  2.3899253547  0.2587990858  0.2028468782
2
step 130
Ne -1.3878984711 -0.2624432026 -0.2057031392
Ne  2.3878984756  0.2624432026  0.2057031392
2
step 131
Ne -1.3858852204 -0.2660628169 -0.2085401950
Ne  2.3858852249  0.2660628169  0.2085401950
2
step 132
Ne -1.3838873933 -0.2696547011 -0.2113555160
Ne  2.3838873978  0.2696547011  0.2113555160
2
step 133
Ne -1.3819067046 -0.2732157724 -0.2141466859
Ne  2.3819067090  0.2732157724  0.2141466859
2
step 134
Ne -1.3799447816 -0.2767431048 -0.2169114111
Ne  2.3799447861  0.2767431048  0.2169114111
2
step 135
Ne -1.3780031582 -0.2802339407 -0.2196475303
Ne  2.3780031627  0.2802339407  0.2196475303
2
step 136
Ne -1.3760832685 -0.2836857017 -0.2223530227
Ne  2.3760832730  0.2836857017  0.2223530227
2
step 137
Ne -1.3741864412 -0.2870959988 -0.2250260156
Ne  2.3741864457  0.2870959988  0.2250260156
2
step 138
Ne -1.3723138951 -0.2904626411 -0.2276647918
Ne  2.3723138995  0.2904626411  0.2276647918
2
step 139
Ne -1.3704667342 -0.2937836432 -0.2302677952
Ne  2.3704667387  0.2937836432  0.2302677952
2
step 140
Ne -1.3686459451 -0.2970572316 -0.2328336358
Ne  2.3686459496  0.2970572316  0.2328336358
2
step 141
Ne -1.3668523938 -0.3002818494 -0.2353610932
Ne  2.3668523983  0.3002818494  0.2353610932
2
step 142
Ne -1.3650868241 -0.3034561592 -0.2378491191
Ne  2.3650868285  0.3034561592  0.2378491191
2
step 143
Ne -1.3633498569 -0.3065790446 -0.2402968385
Ne  2.3633498614  0.3065790446  0.2402968385
2
step 144
Ne -1.3616419908 -0.3096496094 -0.2427035490
Ne  2.3616419953  0.3096496094  0.2427035490
2
step 145
Ne -1.3599636027 -0.3126671757 -0.2450687193
Ne  2.3599636072  0.3126671757  0.2450687193
2
step 146
Ne -1.3583149507 -0.3156312796 -0.2473919858
Ne  2.3583149552  0.3156312796  0.2473919858
2
step 147
Ne -1.3566961769 -0.3185416658 -0.2496731481
Ne  2.3566961813  0.3185416658  0.2496731481
2
step 148
Ne -1.3551073117 -0.3213982793 -0.2519121635
Ne  2.3551073162  0.3213982793  0.2519121635
2
step 149
Ne -1.3535482789 -0.3242012572 -0.2541091393
Ne  2.3535482834  0.3242012572  0.2541091393
2
step 150
Ne -1.3520189014 -0.3269509180 -0.2562643251
Ne  2.3520189059  0.3269509180  0.2562643251
2
step 151
Ne -1.3505189078 -0.3296477498 -0.2583781035
Ne  2.3505189123  0.3296477498  0.2583781035
2
step 152
Ne -1.3490479391 -0.3322923978 -0.2604509802
Ne  2.3490479436  0.3322923978  0.2604509802
2
step 153
Ne -1.3476055566 -0.3348856508 -0.2624835734
Ne  2.3476055610  0.3348856508  0.2624835734
2
step 154
Ne -1.3461912494 -0.3374284273 -0.2644766031
Ne  2.3461912539  0.3374284273  0.2644766031
2
step 155
Ne -1.3448044426 -0.3399217609 -0.2664308795
Ne  2.3448044471  0.3399217609  0.2664308795
2
step 156
Ne -1.3434445051 -0.3423667864 -0.2683472920
Ne  2.3434445096  0.3423667864  0.2683472920
2
step 157
Ne -1.3421107577 -0.3447647249 -0.2702267976
Ne  2.3421107621  0.3447647249  0.2702267976
2
step 158
Ne -1.3408024806 -0.3471168702 -0.2720704105
Ne  2.3408024851  0.3471168702  0.2720704105
2
step 159
Ne -1.3395189216 -0.3494245752 -0.2738791911
Ne  2.3395189261  0.3494245752  0.2738791911
2
step 160
Ne -1.3382593023 -0.3516892391 -0.2756542360
Ne  2.3382593067  0.3516892391  0.2756542360
2
step 161
Ne -1.3370228253 -0.3539122954 -0.2773966688
Ne  2.3370228298  0.3539122954  0.2773966688
2
step 162
Ne -1.3358086808 -0.3560952005 -0.2791076311
Ne  2.3358086852  0.3560952005  0.2791076311
2
step 163
Ne -1.3346160512 -0.3582394237 -0.2807882746
Ne  2.3346160557  0.3582394237  0.2807882746
2
step 164
Ne -1.3334441175 -0.3603464381 -0.2824397537
Ne  2.3334441220  0.3603464381  0.2824397537
2
step 165
Ne -1.3322920629 -0.3624177119 -0.2840632193
Ne  2.3322920673  0.3624177119  0.2840632193
2
step 166
Ne -1.3311590773 -0.3644547014 -0.2856598130
Ne  2.3311590818  0.3644547014  0.2856598130
2
step 167
Ne -1.3300443610 -0.3664588450 -0.2872306619
Ne  2.3300443654  0.3664588450  0.2872306619
2
step 168
Ne -1.3289471269 -0.3684315572 -0.2887768749
Ne  2.3289471313  0.3684315572  0.2887768749
2
step 169
Ne -1.3278666038 -0.3703742248 -0.2902995389
Ne  2.3278666083  0.3703742248  0.2902995389
2
step 170
Ne -1.3268020381 -0.3722882027 -0.2917997160
Ne  2.3268020425  0.3722882027  0.2917997160
2
step 171
Ne -1.3257526952 -0.3741748116 -0.2932784411
Ne  2.3257526997  0.3741748116  0.2932784411
2
step 172
Ne -1.3247178612 -0.3760353350 -0.2947367205
Ne  2.3247178657  0.3760353350  0.2947367205
2
step 173
Ne -1.3236968433 -0.3778710184 -0.2961755302
Ne  2.3236968478  0.3778710184  0.2961755302
2
step 174
Ne -1.3226889708 -0.3796830678 -0.2975958156
Ne  2.3226889753  0.3796830677  0.2975958156
2
step 175
Ne -1.3216935952 -0.3814726491 -0.2989984906
Ne  2.3216935997  0.3814726491  0.2989984906
2
step 176
Ne -1.3207100902 -0.3832408884 -0.3003844376
Ne  2.3207100947  0.3832408884  0.3003844376
2
step 177
Ne -1.3197378518 -0.3849888715 -0.3017545078
Ne  2.3197378562  0.3849888715  0.3017545078
2
step 178
Ne -1.3187762978 -0.3867176450 -0.3031095214
Ne  2.3187763023  0.3867176450  0.3031095214
2
step 179
Ne -1.3178248679 -0.3884282165 -0.3044502685
Ne  2.3178248724  0.3884282165  0.3044502685
2
step 180
Ne -1.3168830225 -0.3901215563 -0.3057775091
Ne  2.3168830269  0.3901215563  0.3057775091
2
step 181
Ne -1.3159502423 -0.3917985975 -0.3070919751
Ne  2.3159502468  0.3917985975  0.3070919751
2
step 182
Ne -1.3150260281 -0.3934602382 -0.3083943700
Ne  2.3150260325  0.3934602382  0.3083943700
2
step 183
Ne -1.3141098992 -0.3951073422 -0.3096853711
Ne  2.3141099037  0.3951073422  0.3096853711
2
step 184
Ne -1.3132013935 -0.3967407405 -0.3109656297
Ne  2.3132013980  0.3967407405  0.3109656297
2
step 185
Ne -1.3123000660 -0.3983612331 -0.3122357728
Ne  2.3123000705  0.3983612331  0.3122357728
2
step 186
Ne -1.3114054885 -0.3999695900 -0.3134964039
Ne  2.3114054930  0.3999695900  0.3134964039
2
step 187
Ne -1.3105172484 -0.4015665530 -0.3147481044
Ne  2.3105172529  0.4015665530  0.3147481044
2
step 188
Ne -1.3096349481 -0.4031528368 -0.3159914346
Ne  2.3096349525  0.4031528368  0.3159914346
2
step 189
Ne -1.3087582040 -0.4047291311 -0.3172269351
Ne  2.3087582084  0.4047291311  0.3172269351
2
step 190
Ne -1.3078866459 -0.4062961015 -0.3184551274
Ne  2.3078866504  0.4062961015  0.3184551274
2
step 191
Ne -1.3070199162 -0.4078543910 -0.3196765156
Ne  2.3070199206  0.4078543910  0.3196765156
2
step 192
Ne -1.3061576689 -0.4094046216 -0.3208915873
Ne  2.3061576733  0.4094046216  0.3208915873
2
step 193
Ne -1.3052995690 -0.4109473955 -0.3221008144
Ne  2.3052995735  0.4109473955  0.3221008144
2
step 194
Ne -1.3044452920 -0.4124832964 -0.3233046544
Ne  2.3044452964  0.4124832964  0.3233046544
2
step 195
Ne -1.3035945226 -0.4140128909 -0.3245035515
Ne  2.3035945271  0.4140128909  0.3245035515
2
step 196
Ne -1.3027469546 -0.4155367295 -0.3256979371
Ne  2.3027469591  0.4155367295  0.3256979371
2
step 197
Ne -1.3019022901 -0.4170553481 -0.3268882313
Ne  2.3019022946  0.4170553481  0.3268882313
2
step 198
Ne -1.3010602385 -0.4185692690 -0.3280748434
Ne  2.3010602429  0.4185692690  0.3280748434
2
step 199
Ne -1.3002205162 -0.4200790020 -0.3292581730
Ne  2.3002205206  0.4200790020  0.3292581730
2
step 200
Ne -1.2993828460 -0.4215850455 -0.3304386108
Ne  2.2993828505  0.4215850455  0.3304386108
2
step 201
Ne -1.2985469564 -0.4230878877 -0.3316165394
Ne  2.2985469609  0.4230878877  0.3316165394
2
step 202
Ne -1.2977125811 -0.4245880074 -0.3327923342
Ne  2.2977125855  0.4245880074  0.3327923342
2
step 203
Ne -1.2968794581 -0.4260858755 -0.3339663641
Ne  2.2968794626  0.4260858755  0.3339663641
2
step 204
Ne -1.2960473298 -0.4275819553 -0.3351389923
Ne  2.2960473343  0.4275819553  0.3351389923
2
step 205
Ne -1.2952159417 -0.4290767043 -0.3363105774
Ne  2.2952159462  0.4290767043  0.3363105774
2
step 206
Ne -1.2943850425 -0.4305705743 -0.3374814737
Ne  2.2943850470  0.4305705743  0.3374814737
2
step 207
Ne -1.2935543830 -0.4320640133 -0.3386520321
Ne  2.2935543875  0.4320640133  0.3386520321
2
step 208
Ne -1.2927237160 -0.4335574659 -0.3398226011
Ne  2.2927237205  0.4335574659  0.3398226011
2
step 209
Ne -1.2918927954 -0.4350513744 -0.3409935275
Ne  2.2918927999  0.4350513744  0.3409935275
2
step 210
Ne -1.2910613758 -0.4365461799 -0.3421651569
Ne  2.2910613803  0.4365461799  0.3421651569
2
step 211
Ne -1.2902292121 -0.4380423235 -0.3433378352
Ne  2.2902292165  0.4380423235  0.3433378352
2
step 212
Ne -1.2893960582 -0.4395402472 -0.3445119086
Ne  2.2893960627  0.4395402472  0.3445119086
2
step 213
Ne -1.2885616674 -0.4410403948 -0.3456877252
Ne  2.2885616719  0.4410403948  0.3456877252
2
step 214
Ne -1.2877257908 -0.4425432137 -0.3468656356
Ne  2.2877257952  0.4425432137  0.3468656356
2
step 215
Ne -1.2868881771 -0.4440491557 -0.3480459938
Ne  2.2868881815  0.4440491557  0.3480459938
2
step 216
Ne -1.2860485717 -0.4455586784 -0.3492291587
Ne  2.2860485762  0.4455586784  0.3492291587
2
step 217
Ne -1.2852067161 -0.4470722469 -0.3504154945
Ne  2.2852067206  0.4470722469  0.3504154945
2
step 218
Ne -1.2843623467 -0.4485903350 -0.3516053729
Ne  2.2843623512  0.4485903350  0.3516053729
2
step 219
Ne -1.2835151940 -0.4501134272 -0.3527991735
Ne  2.2835151984  0.4501134272  0.3527991735
2
step 220
Ne -1.2826649815 -0.4516420204 -0.3539972858
Ne  2.2826649860  0.4516420204  0.3539972858
2
step 221
Ne -1.2818114250 -0.4531766261 -0.3552001106
Ne  2.2818114294  0.4531766261  0.3552001106
2
step 222
Ne -1.2809542304 -0.4547177724 -0.3564080620
Ne  2.2809542349  0.4547177724  0.3564080620
2
step 223
Ne -1.2800930934 -0.4562660070 -0.3576215692
Ne  2.2800930978  0.4562660070  0.3576215692
2
step 224
Ne -1.2792276969 -0.4578218995 -0.3588410787
Ne  2.2792277014  0.4578218995  0.3588410787
2
step 225
Ne -1.2783577101 -0.4593860450 -0.3600670569
Ne  2.2783577146  0.4593860450  0.3600670569
2
step 226
Ne -1.2774827858 -0.4609590676 -0.3612999929
Ne  2.2774827903  0.4609590676  0.3612999929
2
step 227
Ne -1.2766025586 -0.4625416243 -0.3625404018
Ne  2.2766025631  0.4625416243  0.3625404018
2
step 228
Ne -1.2757166422 -0.4641344096 -0.3637888278
Ne  2.2757166466  0.4641344096  0.3637888278
2
step 229
Ne -1.2748246264 -0.4657381609 -0.3650458491
Ne  2.2748246308  0.4657381609  0.3650458491
2
step 230
Ne -1.2739260739 -0.4673536644 -0.3663120817
Ne  2.2739260784  0.4673536644  0.3663120817
2
step 231
Ne -1.2730205168 -0.4689817617 -0.3675881853
Ne  2.2730205213  0.4689817617  0.3675881853
2
step 232
Ne -1.2721074516 -0.4706233576 -0.3688748692
Ne  2.2721074561  0.4706233576  0.3688748692
2
step 233
Ne -1.2711863351 -0.4722794289 -0.3701728989
Ne  2.2711863396  0.4722794289  0.3701728989
2
step 234
Ne -1.2702565783 -0.4739510347 -0.3714831045
Ne  2.2702565828  0.4739510347  0.3714831045
2
step 235
Ne -1.2693175402 -0.4756393272 -0.3728063892
Ne  2.2693175447  0.4756393272  0.3728063892
2
step 236
Ne -1.2683685207 -0.4773455653 -0.3741437396
Ne  2.2683685252  0.4773455653  0.3741437396
2
step 237
Ne -1.2674087521 -0.4790711292 -0.3754962376
Ne  2.2674087566  0.4790711292  0.3754962376
2
step 238
Ne -1.2664373902 -0.4808175366 -0.3768650728
Ne  2.2664373946  0.4808175366  0.3768650728
2
step 239
Ne -1.2654535036 -0.4825864621 -0.3782515577
Ne  2.2654535080  0.4825864621  0.3782515577
2
step 240
Ne -1.2644560623 -0.4843797575 -0.3796571436
Ne  2.2644560668  0.4843797575  0.3796571436
2
step 241
Ne -1.2634439250 -0.4861994748 -0.3810834391
Ne  2.2634439295  0.4861994748  0.3810834391
2
step 242
Ne -1.2624158249 -0.4880478915 -0.3825322293
Ne  2.2624158294  0.4880478915  0.3825322293
2
step 243
Ne -1.2613703551 -0.4899275372 -0.3840054967
Ne  2.2613703596  0.4899275372  0.3840054967
2
step 244
Ne -1.2603059526 -0.4918412218 -0.3855054438
Ne  2.2603059571  0.4918412218  0.3855054438
2
step 245
Ne -1.2592208827 -0.4937920644 -0.3870345154
Ne  2.2592208872  0.4937920643  0.3870345154
2
step 246
Ne -1.2581132231 -0.4957835208 -0.3885954202
Ne  2.2581132276  0.4957835208  0.3885954202
2
step 247
Ne -1.2569808498 -0.4978194100 -0.3901911513
Ne  2.2569808542  0.4978194100  0.3901911513
2
step 248
Ne -1.2558214249 -0.4999039350 -0.3918250032
Ne  2.2558214294  0.4999039350  0.3918250032
2
step 249
Ne -1.2546323895 -0.5020416967 -0.3935005821
Ne  2.2546323940  0.5020416967  0.3935005821
2
step 250
Ne -1.2534109610 -0.5042376977 -0.3952218091
Ne  2.2534109655  0.5042376977  0.3952218091
2
step 251
Ne -1.2521541400 -0.5064973309 -0.3969929110
Ne  2.2521541444  0.5064973309  0.3969929109
2
step 252
Ne -1.2508587265 -0.5088263494 -0.3988183970
Ne  2.2508587309  0.5088263494  0.3988183970
2
step 253
Ne -1.2495213500 -0.5112308129 -0.4007030169
Ne  2.2495213544  0.5112308129  0.4007030169
2
step 254
Ne -1.2481385138 -0.5137170082 -0.4026516983
Ne  2.2481385183  0.5137170082  0.4026516983
2
step 255
Ne -1.2467066564 -0.5162913385 -0.4046694600
Ne  2.2467066608  0.5162913385  0.4046694599
2
step 256
Ne -1.2452222293 -0.5189601836 -0.4067613023
Ne  2.2452222338  0.5189601836  0.4067613023
2
step 257
Ne -1.2436817917 -0.5217297299 -0.4089320744
Ne  2.2436817961  0.5217297299  0.4089320744
2
step 258
Ne -1.2420821170 -0.5246057782 -0.4111863228
Ne  2.2420821214  0.5246057782  0.4111863228
2
step 259
Ne -1.2404203094 -0.5275935351 -0.4135281284
Ne  2.2404203138  0.5275935351  0.4135281284
2
step 260
Ne -1.2386939211 -0.5306974013 -0.4159609405
Ne  2.2386939255  0.5306974013  0.4159609405
2
step 261
Ne -1.2369010646 -0.5339207702 -0.4184874191
Ne  2.2369010691  0.5339207702  0.4184874191
2
step 262
Ne -1.2350405113 -0.5372658513 -0.4211092956
Ne  2.2350405157  0.5372658513  0.4211092956
2
step 263
Ne -1.2331117680 -0.5407335307 -0.4238272648
Ne  2.2331117724  0.5407335307  0.4238272648
2
step 264
Ne -1.2311151279 -0.5443232813 -0.4266409135
Ne  2.2311151324  0.5443232813  0.4266409135
2
step 265
Ne -1.2290516908 -0.5480331262 -0.4295486922
Ne  2.2290516952  0.5480331262  0.4295486921
2
step 266
Ne -1.2269233518 -0.5518596579 -0.4325479299
Ne  2.2269233563  0.5518596579  0.4325479299
2
step 267
Ne -1.2247327630 -0.5557981081 -0.4356348896
Ne  2.2247327675  0.5557981081  0.4356348896
2
step 268
Ne -1.2224832699 -0.5598424624 -0.4388048569
Ne  2.2224832743  0.5598424624  0.4388048569
2
step 269
Ne -1.2201788292 -0.5639856066 -0.4420522558
Ne  2.2201788336  0.5639856066  0.4420522558
2
step 270
Ne -1.2178239153 -0.5682194963 -0.4453707811
Ne  2.2178239197  0.5682194963  0.4453707811
2
step 271
Ne -1.2154234200 -0.5725353366 -0.4487535393
Ne  2.2154234245  0.5725353366  0.4487535393
2
step 272
Ne -1.2129825516 -0.5769237636 -0.4521931910
Ne  2.2129825560  0.5769237636  0.4521931910
2
step 273
Ne -1.2105067375 -0.5813750193 -0.4556820879
Ne  2.2105067420  0.5813750193  0.4556820879
2
step 274
Ne -1.2080015337 -0.5858791147 -0.4592124005
Ne  2.2080015381  0.5858791147  0.4592124005
2
step 275
Ne -1.2054725419 -0.5904259784 -0.4627762350
Ne  2.2054725463  0.5904259784  0.4627762350
2
step 276
Ne -1.2029253368 -0.5950055877 -0.4663657355
Ne  2.2029253413  0.5950055877  0.4663657355
2
step 277
Ne -1.2003654025 -0.5996080827 -0.4699731739
Ne  2.2003654070  0.5996080827  0.4699731739
2
step 278
Ne -1.1977980779 -0.6042238648 -0.4735910266
Ne  2.1977980824  0.6042238648  0.4735910266
2
step 279
Ne -1.1952285108 -0.6088436787 -0.4772120395
Ne  2.1952285153  0.6088436787  0.4772120395
2
step 280
Ne -1.1926616194 -0.6134586819 -0.4808292818
Ne  2.1926616239  0.6134586819  0.4808292818
2
step 281
Ne -1.1901020612 -0.6180605008 -0.4844361902
Ne  2.1901020657  0.6180605008  0.4844361902
2
step 282
Ne -1.1875542072 -0.6226412768 -0.4880266052
Ne  2.1875542117  0.6226412768  0.4880266052
2
step 283
Ne -1.1850221221 -0.6271937020 -0.4915947987
Ne  2.1850221266  0.6271937020  0.4915947987
2
step 284
Ne -1.1825095492 -0.6317110463 -0.4951354959
Ne  2.1825095536  0.6317110463  0.4951354959
2
step 285
Ne -1.1800198995 -0.6361871770 -0.4986438898
Ne  2.1800199040  0.6361871769  0.4986438898
2
step 286
Ne -1.1775562457 -0.6406165698 -0.5021156506
Ne  2.1775562501  0.6406165698  0.5021156506
2
step 287
Ne -1.1751213188 -0.6449943146 -0.5055469296
Ne  2.1751213233  0.6449943146  0.5055469295
2
step 288
Ne -1.1727175099 -0.6493161125 -0.5089343574
Ne  2.1727175144  0.6493161125  0.5089343574
2
step 289
Ne -1.1703468739 -0.6535782690 -0.5122750382
Ne  2.1703468784  0.6535782690  0.5122750382
2
step 290
Ne -1.1680111379 -0.6577776790 -0.5155665383
Ne  2.1680111423  0.6577776790  0.5155665383
2
step 291
Ne -1.1657117115 -0.6619118082 -0.5188068712
Ne  2.1657117159  0.6619118082  0.5188068712
2
step 292
Ne -1.1634497006 -0.6659786680 -0.5219944783
Ne  2.1634497051  0.6659786680  0.5219944783
2
step 293
Ne -1.1612259239 -0.6699767869 -0.5251282063
Ne  2.1612259283  0.6699767869  0.5251282063
2
step 294
Ne -1.1590409304 -0.6739051775 -0.5282072812
Ne  2.1590409348  0.6739051775  0.5282072812
2
step 295
Ne -1.1568950201 -0.6777633007 -0.5312312805
Ne  2.1568950245  0.6777633007  0.5312312804
2
step 296
Ne -1.1547882652 -0.6815510265 -0.5342001023
Ne  2.1547882696  0.6815510265  0.5342001022
2
step 297
Ne -1.1527205322 -0.6852685949 -0.5371139346
Ne  2.1527205367  0.6852685949  0.5371139346
2
step 298