11
step 0
 C  1.2980423739 -0.0652391529  0.1672596767
 C -0.1942037267 -0.0088078703  0.5484245046
 C -1.1147771333  0.0734542169 -0.6848820268
 H  1.9181821665 -0.1223066954  1.0569490812
 H  1.5855467520  0.8204389804 -0.3916211973
 H  1.5047318040 -0.9359988450 -0.4479558838
 H -0.4502406892 -0.8931049315  1.1294646969
 H -0.3696702596  0.8559732503  1.1860049953
 H -0.8968172877  0.9631459339 -1.2682994890
 H -0.9780336584 -0.7932667988 -1.3248254415
 H -2.1570603408  0.1119119124 -0.3823189183
11
step 1
 C  1.2994630382 -0.0638888162  0.1690920477
 C -0.1955073853 -0.0025594859  0.5540959683
 C -1.1129872619  0.0748277057 -0.6839833226
 H  1.9285131064 -0.1307906710  1.0650686249
 H  1.5768542681  0.8285712535 -0.3950050783
 H  1.4967256270 -0.9275107930 -0.4503822157
 H -0.4474023429 -0.8969117724  1.1271817188
 H -0.3635191287  0.8524813215  1.1858634231
 H -0.9070626250  0.9680558776 -1.2673115829
 H -0.9759166801 -0.8067611787 -1.3274774677
 H -2.1534606151  0.1106865589 -0.3889421173
11
step 2
 C  1.3008933886 -0.0624634785  0.1709883438
 C -0.1967607049  0.0035312558  0.5596722717
 C -1.1111743632  0.0761127637 -0.6831536111
 H  1.9381866998 -0.1390425524  1.0721614600
 H  1.5682851728  0.8361888626 -0.3979282311
 H  1.4888781864 -0.9195254016 -0.4531015396
 H -0.4446059910 -0.9002897375  1.1248747229
 H -0.3577262087  0.8500302760  1.1865464701
 H -0.9170665942  0.9728107463 -1.2663901165
 H -0.9738494753 -0.8189154284 -1.3293031668
 H -2.1503138221  0.1094082652 -0.3952802666
11
step 3
 C  1.3023391653 -0.0608958385  0.1730037969
 C -0.1979190509  0.0093309120  0.5650739613
 C -1.1093181095  0.0772422234 -0.6824452906
 H  1.9466648077 -0.1468565554  1.0773768043
 H  1.5599619684  0.8428579108 -0.3999862301
 H  1.4813105336 -0.9124590896 -0.4563679820
 H -0.4418947100 -0.9028587090  1.1225392673
 H -0.3526062692  0.8495758997  1.1888191264
 H -0.9266173467  0.9772659859 -1.2655885272
 H -0.9718500591 -0.8286313898 -1.3296428411
 H -2.1480043642  0.1080180135 -0.4010890643
11
step 4
 C  1.3037960782 -0.0591373183  0.1751739373
 C -0.1989434347  0.0147340421  0.5702347744
 C -1.1074097136  0.0781729740 -0.6818909962
 H  1.9535528396 -0.1540477941  1.0800920552
 H  1.5520297613  0.8482516425 -0.4008542546
 H  1.4741127556 -0.9065999167 -0.4603473792
 H -0.4393226274 -0.9043102801  1.1202086851
 H -0.3484114715  0.8518273969  1.1932594093
 H -0.9355158349  0.9812815630 -1.2649476786
 H -0.9699015981 -0.8351019278 -1.3280462309
 H -2.1467998685  0.1064557090 -0.4061673537
11
step 5
 C  1.3052482915 -0.0571635915  0.1775103545
 C -0.1998026030  0.0196780190  0.5751102676
 C -1.1054552310  0.0788884260 -0.6815009732
 H  1.9586274672 -0.1604631001  1.0799509291
 H  1.5446561833  0.8521807701 -0.4003082584
 H  1.4673382200 -0.9020648275 -0.4650840283
 H -0.4369576789 -0.9044374697  1.1179633146
 H -0.3453071799  0.8571069092  1.2001495463
 H -0.9435806855  0.9847277446 -1.2644959480
 H -0.9679496606 -0.8378519855 -1.3242936682
 H -2.1468100198  0.1046636523 -0.4103698820
11
step 6
 C  1.3066677587 -0.0549767716  0.1799991428
 C -0.2004740238  0.0241509830  0.5796826556
 C -1.1034767045  0.0793988711 -0.6812622652
 H  1.9618496452 -0.1659897046  1.0768792434
 H  1.5380278803  0.8546097810 -0.3982368661
 H  1.4610041797 -0.8987841445 -0.4704861734
 H -0.4348818376 -0.9031527001  1.1159329324
 H -0.3433620277  0.8652763608  1.2094166224
 H -0.9506522436  0.9874915771 -1.2642507575
 H -0.9659023103 -0.8367557092 -1.3184007635
 H -2.1479692807  0.1025905386 -0.4136129263
11
step 7
 C  1.3080140716 -0.0526039997  0.1826019714
 C -0.2009436118  0.0281905532  0.5839600979
 C -1.1015109505  0.0797406192 -0.6811391499
 H  1.9633667454 -0.1705621744  1.0710842649
 H  1.5323442968  0.8556600709 -0.3946448024
 H  1.4550980564 -0.8965166330 -0.4763341963
 H -0.4331887602 -0.9004922437  1.1142924483
 H -0.3425542544  0.8757587587  1.2206436591
 H -0.9565958468  0.9894837924 -1.2642210506
 H -0.9636316019 -0.8320389887 -1.3106134502
 H -2.1500468297  0.1001953317 -0.4158727552
11
step 8
 C  1.3092349282 -0.0500928182  0.1852595685
 C -0.2012045276  0.0318739695  0.5879708708
 C -1.0996062028  0.0799741536 -0.6810746486
 H  1.9635046547 -0.1741675303  1.0630392157
 H  1.5278092853  0.8556004588 -0.3896482369
 H  1.4495873097 -0.8948910541 -0.4823099678
 H -0.4319789295 -0.8966065935  1.1132512141
 H -0.3427906802  0.8876464397  1.2331465270
 H -0.9613043898  0.9906457714 -1.2644102209
 H -0.9609761444 -0.8242691820 -1.3013947311
 H -2.1526812378  0.0974503948 -0.4171781570
11
step 9
 C  1.3102676835 -0.0475042215  0.1878972976
 C -0.2012556603  0.0353029439  0.5917547713
 C -1.0978171741  0.0801808595 -0.6809933523
 H  1.9627473589 -0.1768475919  1.0534499892
 H  1.5246209354  0.8548249523 -0.3834617658
 H  1.4444302582 -0.8934644723 -0.4880409783
 H -0.4313525254 -0.8917373879  1.1130365596
 H -0.3439313288  0.8998588771  1.2460896077
 H -0.9647001589  0.9909560478 -1.2648190720
 H -0.9577454998 -0.8143257576 -1.2913991144
 H -2.1554325731  0.0943434288 -0.4175990215
11
step 10
 C  1.3110426212 -0.0449044975  0.1904325054
 C -0.2011003438  0.0385872419  0.5953545910
 C -1.0961992357  0.0804573395 -0.6808061412
 H  1.9616991713 -0.1786967215  1.0431982724
 H  1.5229599953  0.8538173501 -0.3763764646
 H  1.4395856306 -0.8917856536 -0.4931505472
 H -0.4314004611 -0.8861828653  1.1138726126
 H -0.3458131190  0.9113046648  1.2586066052
 H -0.9667358473  0.9904356598 -1.2654484394
 H -0.9537282095 -0.8033393256 -1.2814267976
 H -2.1578423084  0.0908780506 -0.4172330651
11
step 11
 C  1.3114884668 -0.0423569225  0.1927833453
 C -0.2007455816  0.0418300293  0.5988096212
 C -1.0948023161  0.0809062068 -0.6804174518
 H  1.9610248049 -0.1798528568  1.0332559994
 H  1.5229773124  0.8531030264 -0.3687290303
 H  1.4350195919 -0.8894535757 -0.4973059375
 H -0.4321943043 -0.8802554999  1.1159561926
 H -0.3482688798  0.9210150676  1.2699018991
 H -0.9673946849  0.9891514685 -1.2663010783
 H -0.9487059589 -0.7925851955 -1.2723490002
 H -2.1594918541  0.0870731320 -0.4161924207
11
step 12
 C  1.3115402048 -0.0399141709  0.1948786211
 C -0.2002017632  0.0451164412  0.6021517733
 C -1.0936649224  0.0816229123 -0.6797353383
 H  1.9613664299 -0.1804806521  1.0245719931
 H  1.5247808212  0.8531903145 -0.3608636445
 H  1.4307099910 -0.8861646704 -0.5002585668
 H -0.4337761211 -0.8742373259  1.1194324295
 H -0.3511409194  0.9282366161  1.2793225529
 H -0.9666897500  0.9872163960 -1.2673823311
 H -0.9424762109 -0.7833255404 -1.2650011077
 H -2.1600528285  0.0829612282 -0.4145912868
11
step 13
 C  1.3111484584 -0.0376120597  0.1966676948
 C -0.1994826723  0.0485056425  0.6054038185
 C -1.0928085860  0.0826798470 -0.6786835047
 H  1.9632452185 -0.1807479893  1.0179428107
 H  1.5284227613  0.8545070217 -0.3530905474
 H  1.4266482576 -0.8817459943 -0.5018732172
 H -0.4361495535 -0.8683398733  1.1243734485
 H -0.3542901927  0.9324857235  1.2864026711
 H -0.9646627280  0.9847854406 -1.2686989816
 H -0.9348836162 -0.7766142835 -1.2600531668
 H -2.1593249321  0.0785864646 -0.4125354267
11
step 14
 C  1.3102887267 -0.0354650443  0.1981288047
 C -0.1986055166  0.0520260987  0.6085787932
 C -1.0922331838  0.0841112617 -0.6772130166
 H  1.9669654296 -0.1808004560  1.0138925099
 H  1.5338881048  0.8573408727 -0.3456475895
 H  1.4228396217 -0.8761738075 -0.5021450989
 H -0.4392735519 -0.8626757807  1.1307635992
 H -0.3576026915  0.9335751766  1.2908870938
 H -0.9613825279  0.9820464651 -1.2702557140
 H -0.9258561763 -0.7731060677 -1.2578846801
 H -2.1572593903  0.0740021239 -0.4101141235
11
step 15
 C  1.3089681511 -0.0334637746  0.1992737553
 C -0.1975907355  0.0556737043  0.6116796996
 C -1.0919139144  0.0859040000 -0.6753104077
 H  1.9725460510 -0.1807407835  1.0125926175
 H  1.5410856204  0.8617946132 -0.3386720690
 H  1.4193022116 -0.8695777164 -0.5012044063
 H -0.4430600341 -0.8572474531  1.1384940501
 H -0.3609944466  0.9316221224  1.2927414283
 H -0.9569441449  0.9792053783 -1.2720488757
 H -0.9154369816 -0.7729284418 -1.2585020032
 H -2.1539669532  0.0692680162 -0.4073951710
11
step 16
 C  1.3072277353 -0.0315750201  0.2001474163
 C -0.1964614253  0.0594125432  0.6146990792
 C -1.0918008962  0.0879980058 -0.6729994482
 H  1.9797018554 -0.1806195989  1.0138466994
 H  1.5498434635  0.8677656596 -0.3321889801
 H  1.4160652747 -0.8622300596 -0.4993078603
 H -0.4473762779 -0.8519547735  1.1473681733
 H -0.3644158322  0.9270428211  1.2921522629
 H -0.9514679242  0.9764666034 -1.2740578947
 H -0.9038001313 -0.7756651326 -1.2615294907
 H -2.1497096190  0.0644476580 -0.4044234514
11
step 17
 C  1.3051392058 -0.0297442979  0.2008218237
 C -0.1952423698  0.0631782513  0.6176186117
 C -1.0918220709  0.0902969173 -0.6703360289
 H  1.9878812057 -0.1804397943  1.0171439984
 H  1.5599112557  0.8749559203 -0.3261182930
 H  1.4131664272 -0.8545195433 -0.4968163590
 H -0.4520521395 -0.8466198529  1.1571173162
 H -0.3678548330  0.9205334708  1.2895168930
 H -0.9450989901  0.9740114251 -1.2762356240
 H -0.8912433296 -0.7804568252 -1.2662788940
 H -2.1448753151  0.0596054565 -0.4012235018
11
step 18
 C  1.3027973851 -0.0279013995  0.2013861960
 C -0.1939588509  0.0668841312  0.6204094209
 C -1.0918893627  0.0926850506 -0.6673981069
 H  1.9963492073 -0.1801716049  1.0217640011
 H  1.5709699246  0.8829107527 -0.3202992010
 H  1.4106476440 -0.8469083879 -0.4941581638
 H -0.4568913812 -0.8410234690  1.1674247975
 H -0.3713376864  0.9130308667  1.2854175051
 H -0.9380062434  0.9719782276 -1.2784997636
 H -0.8781582264 -0.7861798999 -1.2718715866
 H -2.1399355739  0.0548043741 -0.3978061403
11
step 19
 C  1.3003101405 -0.0259685650  0.2019350425
 C -0.1926355945  0.0704302491  0.6230340549
 C -1.0919072646  0.0950453084 -0.6642738550
 H  2.0042924420 -0.1797723146  1.0269011995
 H  1.5826491040  0.8910793815 -0.3145253058
 H  1.4085497759 -0.8398743503 -0.4917788258
 H -0.4616857055 -0.8349461894  1.1779547157
 H -0.3749241428  0.9056436087  1.2805721879
 H -0.9303801699  0.9704489414 -1.2807278612
 H -0.8649872483 -0.7916432181 -1.2773744116
 H -2.1353883953  0.0501047201 -0.3941786786
11
step 20
 C  1.2977881504 -0.0238703910  0.2025565033
 C -0.1912962992  0.0737155565  0.6254509734
 C -1.0917825373  0.0972736485 -0.6610506809
 H  2.0109209076 -0.1792047379  1.0317814007
 H  1.5945502240  0.8988851260 -0.3085830431
 H  1.4069057920 -0.8338430085 -0.4900824344
 H -0.4662297239 -0.8282074060  1.1883817128
 H -0.3786941605  0.8995464879  1.2757565319
 H -0.9224288399  0.9694448202 -1.2827579375
 H -0.8521779981 -0.7957548486 -1.2819169977
 H -2.1316919086  0.0455645614 -0.3903574952
11
step 21
 C  1.2953360648 -0.0215439510  0.2033225051
 C -0.1899640856  0.0766524043  0.6276216643
 C -1.0914336001  0.0992882574 -0.6578064885
 H  2.0155510706 -0.1784511375  1.0357525496
 H  1.6062723013  0.9057937007 -0.3022865923
 H  1.4057336075 -0.8291204821 -0.4893728378
 H -0.4703351055 -0.8206971023  1.1984181850
 H -0.3827241977  0.8958398089  1.2716970247
 H -0.9143718581  0.9689323741 -1.2843955657
 H -0.8401434751 -0.7976377323 -1.2847758048
 H -2.1291981777  0.0412417359 -0.3863808696
11
step 22
 C  1.2930456803 -0.0189473529  0.2042817276
 C -0.1886628363  0.0791816215  0.6295192820
 C -1.0907983361  0.1010337968 -0.6546034355
 H  2.0176644156 -0.1775219675  1.0383456753
 H  1.6174373312  0.9113709300 -0.2955050727
 H  1.4050299857 -0.8258399758 -0.4898062958
 H -0.4738424899 -0.8123972678  1.2078363367
 H -0.3870551099  0.8953914639  1.2689508333
 H -0.9064325040  0.9688378426 -1.2854267397
 H -0.8292316012 -0.7966964366 -1.2854254790
 H -2.1280988524  0.0371967536 -0.3823193181
11
step 23
 C  1.2909909989 -0.0160652165  0.2054558842
 C -0.1874188618  0.0812850638  0.6311364314
 C -1.0898393582  0.1024822313 -0.6514838666
 H  2.0169434059 -0.1764604886  1.0393097733
 H  1.6277129193  0.9153254703 -0.2881805631
 H  1.4047671936 -0.8239347193 -0.4913664596
 H -0.4766302445 -0.8033916828  1.2164835055
 H -0.3916591581  0.8986965068  1.2678006537
 H -0.8988286945  0.9690668938 -1.2856346532
 H -0.8197036901 -0.7926483253 -1.2835658450
 H -2.1283937036  0.0334953254 -0.3782806484
11
step 24
 C  1.2892247197 -0.0129102570  0.2068393688
 C -0.1862619441  0.0829921480  0.6324892950
 C -1.0885462537  0.1036318773 -0.6484679776
 H  2.0132897379 -0.1753446563  1.0386271169
 H  1.6368308303  0.9175356510 -0.2803373145
 H  1.4048935938 -0.8231442321 -0.4938678614
 H -0.4786195749 -0.7938639974  1.2242899984
 H -0.3964175330  0.9057950756  1.2681979811
 H -0.8917635946  0.9695257110 -1.2848179576
 H -0.8117197255 -0.7855332239 -1.2791337392
 H -2.1298888508  0.0302091708 -0.3744078504
11
step 25
 C  1.2877758249 -0.0095210542  0.2084018695
 C -0.1852249222  0.0843781527  0.6336163709
 C -1.0869348548  0.1045058001 -0.6455528857
 H  2.0068289220 -0.1742871589  1.0365140369
 H  1.6446008781  0.9180613102 -0.2720831512
 H  1.4053382985 -0.8230522813 -0.4969868081
 H -0.4797757694 -0.7840846919  1.2312691021
 H -0.4011182495  0.9162755984  1.2697756842
 H -0.8854166906  0.9701401145 -1.2828081661
 H -0.8053285296 -0.7757105046 -1.2723056647
 H -2.1322248913  0.0274142456 -0.3708695769
11
step 26
 C  1.2866483068 -0.0059568247  0.2100932493
 C -0.1843416397  0.0855546270  0.6345722723
 C -1.0850440065  0.1051498977 -0.6427130247
 H  1.9979022035 -0.1734335551  1.0334085885
 H  1.6509197371  0.9171415322 -0.2636037689
 H  1.4060188844 -0.8231472026 -0.5003119173
 H -0.4801054795 -0.7743879553  1.2375090967
 H -0.4054767447  0.9293606548  1.2719254129
 H -0.8799360189  0.9708703733 -1.2794843693
 H -0.8004625590 -0.7638450716 -1.2634922343
 H -2.1349286790  0.0251863976 -0.3678447301
11
step 27
 C  1.2858215219 -0.0022903521  0.2118499719
 C -0.1836438637  0.0866546408  0.6354189633
 C -1.0829304634  0.1056302007 -0.6399021165
 H  1.9870433676 -0.1729574875  1.0299424742
 H  1.6557739041  0.9151782497 -0.2551500084
 H  1.4068504860 -0.8228915832 -0.5034032701
 H -0.4796500954 -0.7651400684  1.2431573417
 H -0.4091725599  0.9440452505  1.2739126825
 H -0.8754320947  0.9717204343 -1.2747840171
 H -0.7969394914 -0.7508762072 -1.2533200504
 H -2.1374785226  0.0235952906 -0.3655038627
11
step 28
 C  1.2852529251  0.0013998257  0.2136025927
 C -0.1831581771  0.0878165097  0.6362173325
 C -1.0806624321  0.1060283084 -0.6370572908
 H  1.9749357479 -0.1730512202  1.0268917085
 H  1.6592355761  0.9127047568 -0.2470177617
 H  1.4077545744 -0.8217892796 -0.5058498694
 H -0.4784756437 -0.7567017137  1.2483971816
 H -0.4118907890  0.9592473590  1.2749956757
 H -0.8719739456  0.9727411422 -1.2687090442
 H -0.7944750939 -0.7379574615 -1.2425924043
 H -2.1393719903  0.0226978922 -0.3639903733
11
step 29
 C  1.2848838295  0.0050371587  0.2152841212
 C -0.1829036700  0.0891689603  0.6370211069
 C -1.0783120493  0.1064337116 -0.6341060561
 H  1.9623454806 -0.1739096127  1.0251005494
 H  1.6614501563  0.9103382638 -0.2395203844
 H  1.4086662226 -0.8194416505 -0.5073183644
 H -0.4766602833 -0.7493877348  1.2534196572
 H -0.4133583425  0.9739394440  1.2745228906
 H -0.8695875122  0.9740275908 -1.2613270088
 H -0.7927127769 -0.7263544293 -1.2322190276
 H -2.1401875699  0.0225327692 -0.3634039734
11
step 30
 C  1.2846482370  0.0085542220  0.2168390678
 C -0.1828907454  0.0908193309  0.6378736558
 C -1.0759470346  0.1069323525 -0.6309764521
 H  1.9500321291 -0.1757065708  1.0253779607
 H  1.6626148956  0.9087173660 -0.2329545681
 H  1.4095393463 -0.8155892604 -0.5075897142
 H -0.4742812552 -0.7434289977  1.2583935501
 H -0.4133699168  0.9872466863  1.2719999187
 H -0.8682565092  0.9757110336 -1.2527672159
 H -0.7912729150 -0.7172942555 -1.2231100699
 H -2.1396345267  0.0231160121 -0.3637880608
11
step 31
 C  1.2844837208  0.0118988842  0.2182325424
 C -0.1831208540  0.0928452301  0.6388070804
 C -1.0736221145  0.1075923511 -0.6276096247
 H  1.9386471200 -0.1785653968  1.0283759237
 H  1.6629499853  0.9084288037 -0.2275625252
 H  1.4103499647 -0.8101383994 -0.5065830921
 H -0.4714036950 -0.7389416534  1.2634385026
 H -0.4118032689  0.9985120679  1.2671276012
 H -0.8679256510  0.9779458774 -1.2432120525
 H -0.7898180733 -0.7117789688 -1.2160426945
 H -2.1375879330  0.0244390502 -0.3651218987
11
step 32
 C  1.2843421875  0.0150391719  0.2194579868
 C -0.1835867033  0.0952894110  0.6398424749
 C -1.0713715406  0.1084500376 -0.6239724591
 H  1.9286406526 -0.1825279748  1.0344716236
 H  1.6626658950  0.9099324078 -0.2234955631
 H  1.4110977835 -0.8031729386 -0.5043673157
 H -0.4680736644 -0.7359087375  1.2686061636
 H -0.4086260481  1.0073358303  1.2598191908
 H -0.8685059553  0.9808923119 -1.2328839975
 H -0.7881201111 -0.7104004423 -1.2115273507
 H -2.1341072325  0.0264681647 -0.3673180826
11
step 33
 C  1.2841977479  0.0179664344  0.2205415454
 C -0.1842725083  0.0981574312  0.6409903396
 C -1.0692046056  0.1095009697 -0.6200667397
 H  1.9202023141 -0.1875308054  1.0436838984
 H  1.6619329503  0.9134968808 -0.2207857192
 H  1.4118063196 -0.7949515268 -0.5011596519
 H -0.4643169306 -0.7341774274  1.2738731331
 H -0.4038968863  1.0135976965  1.2502039908
 H -0.8698816807  0.9846953560 -1.2220290548
 H -0.7861077942 -0.7132129553 -1.2097138833
 H -2.1294368800  0.0291453578 -0.3702256480
11
step 34
 C  1.2840495016  0.0206962860  0.2215413145
 C -0.1851540753  0.1014177646  0.6422506103
 C -1.0671058227  0.1106998606 -0.6159317506
 H  1.9132537892 -0.1933961199  1.0556504613
 H  1.6608597980  0.9191597964 -0.2193319788
 H  1.4125214504 -0.7858887930 -0.4973107010
 H -0.4601436116 -0.7334727214  1.2791471328
 H -0.3977624166  1.0174668550  1.2386216603
 H -0.8719183344  0.9894617631 -1.2108977803
 H -0.7838766779 -0.7197110589 -1.2103715241
 H -2.1239872330  0.0323904175 -0.3736390650
11
step 35
 C  1.2839187198  0.0232667443  0.2225409348
 C -0.1861988263  0.1050043104  0.6436123961
 C -1.0650401998  0.1119700415 -0.6116395009
 H  1.9074949720 -0.1998424131  1.0696747376
 H  1.6594856991  0.9267213897 -0.2189050678
 H  1.4133078645 -0.7765182625 -0.4932732502
 H -0.4555573351 -0.7334255533  1.2842850662
 H -0.3904502407  1.0193990491  1.2256070215
 H -0.8744710785  0.9952373035 -1.1997256958
 H -0.7816577521 -0.7289226408 -1.2129495831
 H -2.1182940578  0.0361043715 -0.3773130049
11
step 36
 C  1.2838418284  0.0257331557  0.2236386005
 C -0.1873661176  0.1088215867  0.6450540695
 C -1.0629625053  0.1132192164 -0.6072844787
 H  1.9024867778 -0.2065123162  1.0848283722
 H  1.6577878602  0.9357739728 -0.2191704713
 H  1.4142427249 -0.7674355386 -0.4895536640
 H -0.4505665950 -0.7336112078  1.2891193609
 H -0.3822564211  1.0201139196  1.2118613195
 H -0.8773927543  1.0019879642 -1.1887155610
 H -0.7797583980 -0.7395824309 -1.2166940565
 H -2.1129568444  0.0401746827 -0.3809819671
11
step 37
 C  1.2838616902  0.0281600769  0.2249336842
 C -0.1886082808  0.1127531638  0.6465446418
 C -1.0608284699  0.1143563944 -0.6029712500
 H  1.8977452844 -0.2130104774  1.1000804302
 H  1.6557008704  0.9457601293 -0.2197248846
 H  1.4154062146 -0.7592239455 -0.4866474274
 H -0.4451958234 -0.7335928621  1.2934878562
 H -0.3735255695  1.0205411173  1.1982038611
 H -0.8805407058  1.0095888640 -1.1780243121
 H -0.7784970622 -0.7503290367 -1.2207802794
 H -2.1085601626  0.0444822271 -0.3843827262
11
step 38
 C  1.2840195244  0.0306111554  0.2265134431
 C -0.1898726586  0.1166738421  0.6480472299
 C -1.0586057633  0.1153057513 -0.5988028246
 H  1.8928252962 -0.2189426926  1.1144235679
 H  1.6531425898  0.9560468581 -0.2201386881
 H  1.4168696347 -0.7523710061 -0.4849657715
 H -0.4394942380 -0.7329651361  1.2972626268
 H -0.3646226640  1.0217236892  1.1854993468
 H -0.8837817301  1.0178237637 -1.1677570231
 H -0.7781489280 -0.7598774145 -1.2244285822
 H -2.1055879216  0.0489093501 -0.3872764877
11
step 39
 C  1.2843487935  0.0331388793  0.2284418955
 C -0.1911045535  0.1204653913  0.6495247914
 C -1.0562829453  0.1160155163 -0.5948713783
 H  1.8873817827 -0.2239497586  1.1269775287
 H  1.6500404654  0.9660016715 -0.2199971222
 H  1.4186830667 -0.7471906214 -0.4847661225
 H -0.4335413931 -0.7313933163  1.3003741567
 H -0.3558985427  1.0246755000  1.1745624034
 H -0.8869948616  1.0263961298 -1.1579689475
 H -0.7789099892 -0.7671438289 -1.2269877466
 H -2.1043455315  0.0533475556 -0.3894671827
11
step 40
 C  1.2848712558  0.0357763770  0.2307523277
 C -0.1922505766  0.1240342066  0.6509472591
 C -1.0538750824  0.1164621159 -0.5912516524
 H  1.8812077442 -0.2277332243  1.1370630577
 H  1.6463537963  0.9750597382 -0.2189350541
 H  1.4208655669 -0.7437688383 -0.4861022042
 H -0.4274491605 -0.7286449088  1.3028285984
 H -0.3476548877  1.0302075824  1.1660515279
 H -0.8900722011  1.0349505126 -1.1486749620
 H -0.7808785623 -0.7713232413 -1.2279867442
 H -2.1049066092  0.0577031670 -0.3908129173
11
step 41
 C  1.2855946767  0.0385330005  0.2334441496
 C -0.1932615949  0.1273274006  0.6522981637
 C -1.0514253075  0.1166509185 -0.5879966285
 H  1.8742528925 -0.2300732569  1.1442485515
 H  1.6420897020  0.9827761864 -0.2166631181
 H  1.4234006733 -0.7419474730 -0.4888070236
 H -0.4213603337 -0.7246109383  1.3047169105
 H -0.3401173043  1.0387610794  1.1603757718
 H -0.8929184105  1.0431013386 -1.1398642556
 H -0.7840493496 -0.7719309918 -1.2271630679
 H -2.1070968993  0.0618998515 -0.3912292110
11
step 42
 C  1.2865115550  0.0413943366  0.2364840082
 C -0.1940945558  0.1303428378  0.6535784882
 C -1.0490023246  0.1166150440 -0.5851348414
 H  1.8666288442 -0.2308402423  1.1483754584
 H  1.6373123858  0.9888621823 -0.2129852739
 H  1.4262385208 -0.7413498691 -0.4925135777
 H -0.4154441712 -0.7193148651  1.3062151895
 H -0.3334241649  1.0502976435  1.1576411349
 H -0.8954496577  1.0504655272 -1.1315173828
 H -0.7883150159 -0.7688223017 -1.2244767452
 H -2.1105191343  0.0658779770 -0.3906846992
11
step 43
 C  1.2875985099  0.0443260587  0.2398103573
 C -0.1947129682  0.1331296496  0.6548063692
 C -1.0466945851  0.1164132081 -0.5826688298
 H  1.8586048768 -0.2300015242  1.1495674639
 H  1.6321462177  0.9932059504 -0.2078088382
 H  1.4293037753 -0.7414411968 -0.4967075816
 H -0.4098891180 -0.7129073471  1.3075755841
 H -0.3276334306  1.0642870496  1.1576537559
 H -0.8975926846  1.0566955487 -1.1236229125
 H -0.7934720691 -0.7621984810 -1.2201157806
 H -2.1146122729  0.0695917685 -0.3891915558
11
step 44
 C  1.2888164078  0.0472801974  0.2433403558
 C -0.1950864365  0.1357788092  0.6560130220
 C -1.0446023243  0.1161268401 -0.5805745955
 H  1.8505953883 -0.2276234203  1.1482246809
 H  1.6267733236  0.9958803078 -0.2011479221
 H  1.4325070469 -0.7416077147 -0.5007989735
 H -0.4048929042 -0.7056457812  1.3091072237
 H -0.3227426474  1.0797970777  1.1599768439
 H -0.8992843871  1.0615101977 -1.1161915836
 H -0.7992302602 -0.7526012278 -1.2144935920
 H -2.1187313736  0.0730056877 -0.3867934260
11
step 45
 C  1.2901116595  0.0502022380  0.2469781472
 C -0.1951899784  0.1384066332  0.6572368084
 C -1.0428286759  0.1158559793 -0.5788024569
 H  1.8431373205 -0.2238670144  1.1449993525
 H  1.6214261042  0.9971372089 -0.1931204474
 H  1.4357570596 -0.7412382815 -0.5041973132
 H -0.4006503798 -0.6978590200  1.3111471425
 H -0.3187133380  1.0956531941  1.1640201441
 H -0.9004719880  1.0647209988 -1.1092667337
 H -0.8052269356 -0.7408883372 -1.2082333905
 H -2.1222326585  0.0760912743 -0.3835531819
11
step 46
 C  1.2914192623  0.0530378276  0.2506240844
 C -0.1950037218  0.1411357049  0.6585177298
 C -1.0414707649  0.1157129145 -0.5772801610
 H  1.8368538725 -0.2189750007  1.1407459793
 H  1.6163748183  0.9973882735 -0.1839381176
 H  1.4389715128 -0.7397958166 -0.5063796287
 H -0.3973398221 -0.6899000734  1.3140226223
 H -0.3154920836  1.1106183270  1.1691351169
 H -0.9011136666  1.0662525406 -1.1029304649
 H -0.8110492409 -0.7281776156 -1.2021296658
 H -2.1245513358  0.0788251319 -0.3795418457
11
step 47
 C  1.2926680492  0.0557384843  0.2541849012
 C -0.1945131794  0.1440772110  0.6598938106
 C -1.0406112401  0.1158124249 -0.5759193209
 H  1.8324008184 -0.2132469026  1.1364385602
 H  1.6119102811  0.9971693086 -0.1738883949
 H  1.4420856262 -0.7368727512 -0.5069447067
 H -0.3951089550 -0.6820926732  1.3180086416
 H -0.3130246874  1.1235513083  1.1746959921
 H -0.9011794523  1.0661550693 -1.0973053910
 H -0.8162671943 -0.7157440699 -1.1970752233
 H -2.1252648312  0.0811881641 -0.3748291375
11
step 48
 C  1.2937882104  0.0582662804  0.2575847961
 C -0.1937099355  0.1473170783  0.6613995531
 C -1.0403104542  0.1162581878 -0.5746258292
 H  1.8303946544 -0.2070021605  1.1330531396
 H  1.6083219957  0.9970873130 -0.1633080434
 H  1.4450582497 -0.7322296529 -0.5056524135
 H -0.3940623126 -0.6746804158  1.3232865459
 H -0.3112636792  1.1335238447  1.1801586805
 H -0.9006523048  1.0646074552 -1.0925518324
 H -0.8204785702 -0.7048631964 -1.1939471328
 H -2.1241386235  0.0831657639 -0.3694756366
11
step 49
 C  1.2947204618  0.0605978595  0.2607766905
 C -0.1925924133  0.1509067397  0.6630656431
 C -1.0405996013  0.1171266970 -0.5733136049
 H  1.8313281539 -0.2005350725  1.1314260501
 H  1.6058727225  0.9977509639 -0.1525493160
 H  1.4478758703 -0.7258187041 -0.5024489581
 H -0.3942516790 -0.6677884022  1.3299115021
 H -0.3101713598  1.1398952002  1.1850988838
 H -0.8995295364  1.0619083463 -1.0888600901
 H -0.8233617633 -0.6966138141 -1.1934595986
 H -2.1211544051  0.0847484716 -0.3635265507
11
step 50
 C  1.2954254021  0.0627282223  0.2637518074
 C -0.1911664129  0.1548583750  0.6649187121
 C -1.0414755584  0.1184524631 -0.5719191040
 H  1.8354872845 -0.1940710126  1.1321139862
 H  1.6047715614  0.9996902026 -0.1419421983
 H  1.4505548420 -0.7177935726 -0.4974789469
 H -0.3956710053 -0.6614057066  1.3377957083
 H -0.3097208021  1.1423539902  1.1892350189
 H -0.8978249688  1.0584533485 -1.0864371407
 H -0.8247264654 -0.6916826764 -1.1960136747
 H -2.1165205365  0.0859326109 -0.3570074256
11
step 51
 C  1.2958910012  0.0646743453  0.2665448990
 C -0.1894452147  0.1591440245  0.6669802049
 C -1.0428986148  0.1202198030 -0.5704125263
 H  1.8428896300 -0.1877364066  1.1352927026
 H  1.6051488735  1.0032762638 -0.1317585597
 H  1.4531417767 -0.7085051354 -0.4910832300
 H -0.3982565192 -0.6553925668  1.3467114403
 H -0.3098965646  1.1409378495  1.1924415742
 H -0.8955723146  1.0546970839 -1.0854871475
 H -0.8245478100 -0.6902323762 -1.2015904275
 H -2.1106633256  0.0867205739 -0.3499225815
11
step 52
 C  1.2961362737  0.0664778862  0.2692327540
 C -0.1874491627  0.1636979126  0.6692640431
 C -1.0447942786  0.1223653322 -0.5688020268
 H  1.8532631142 -0.1815522666  1.1407266426
 H  1.6070373164  1.0086579494 -0.1221853398
 H  1.4557114123 -0.6984796957 -0.4837789934
 H -0.4018919343 -0.6495103590  1.3563137297
 H -0.3106959877  1.1360373481  1.1947559777
 H -0.8928300427  1.0511016263 -1.0861860112
 H -0.8229720758 -0.6918825940 -1.2097287177
 H -2.1041958241  0.0871207485 -0.3422573956
11
step 53
 C  1.2962102110  0.0682053798  0.2719252250
 C -0.1852047522  0.1684215369  0.6717735434
 C -1.0470597095  0.1247912206 -0.5671297714
 H  1.8660730778 -0.1754527141  1.1478201066
 H  1.6103632191  1.0157299887 -0.1133128131
 H  1.4583606190 -0.6883744798 -0.4762168641
 H -0.4064179774 -0.6434674546  1.3661783655
 H -0.3121310130  1.1283834346  1.1963783580
 H -0.8896873619  1.0480770561 -1.0886520239
 H -0.8202915656 -0.6958111325 -1.2195975732
 H -2.0978603422  0.0871474705 -0.3339856140
11
step 54
 C  1.2961865270  0.0699441574  0.2747501336
 C -0.1827433668  0.1731914761  0.6744986620
 C -1.0495743129  0.1273848408 -0.5654617778
 H  1.8805904255 -0.1693205667  1.1557326238
 H  1.6149509734  1.0241430881 -0.1051403013
 H  1.4611969883 -0.6789064135 -0.4691109683
 H -0.4116450095 -0.6369716736  1.3758484132
 H -0.3142294535  1.1190104947  1.1976596535
 H -0.8862700375  1.0459243434 -1.0929170726
 H -0.8168973295 -0.7009332142 -1.2301353128
 H -2.0924435614  0.0868216687 -0.3250825108
11
step 55
 C  1.2961559295  0.0717932235  0.2778349506
 C -0.1800999448  0.1778702384  0.6774149268
 C -1.0522130742  0.1300385294 -0.5638750684
 H  1.8959822057 -0.1630274386  1.1635232026
 H  1.6205402246  1.0333543459 -0.0975968082
 H  1.4643212784 -0.6707561956 -0.4631436785
 H -0.4173673524 -0.6297804903  1.3848820282
 H -0.3170335021  1.1091826073  1.1990705729
 H -0.8827439541  1.0447929926 -1.0989045887
 H -0.8132240489 -0.7060972805 -1.2402086062
 H -2.0886699283  0.0861727931 -0.3155436126
11
step 56
 C  1.2962178407  0.0738502331  0.2812886416
 C -0.1773119694  0.1823204687  0.6804852348
 C -1.0548605291  0.1326645204 -0.5624452186
 H  1.9114039487 -0.1564677002  1.1702880926
 H  1.6268126092  1.0427059612 -0.0905703294
 H  1.4678052058 -0.6644600966 -0.4588569655
 H -0.4233779856 -0.6217424862  1.3928955781
 H -0.3205923633  1.1002721502  1.2011439246
 H -0.8793141814  1.0446637662 -1.1064202560
 H -0.8096995987 -0.7102490432 -1.2487518921
 H -2.0870886119  0.0852420565 -0.3054067838
11
step 57
 C  1.2964728323  0.0761975251  0.2851867805
 C -0.1744191643  0.1864220992  0.6836649620
 C -1.0574229531  0.1352030908 -0.5612359856
 H  1.9260790046 -0.1495812355  1.1752697349
 H  1.6334229921  1.0515146304 -0.0839386638
 H  1.4716691359 -0.6603125835 -0.4565530154
 H -0.4294824261 -0.6128263856  1.3995981018
 H -0.3249461363  1.0935909589  1.2043883078
 H -0.8762180864  1.0453604812 -1.1151589123
 H -0.8067058850 -0.7125440462 -1.2548684580
 H -2.0879774294  0.0840861690 -0.2947731545
11
step 58
 C  1.2970160687  0.0788908494  0.2895622640
 C -0.1714640265  0.1900904388  0.6869095811
 C -1.0598365706  0.1376246439 -0.5602915264
 H  1.9393587623 -0.1423651874  1.1779302067
 H  1.6400302365  1.0591553206 -0.0775962472
 H  1.4758664021 -0.6583067295 -0.4562311894
 H -0.4355107907 -0.6031362195  1.4048150594
 H -0.3301006594  1.0901952092  1.2091832043
 H -0.8737125768  1.0465870345 -1.1247270440
 H -0.8045518583 -0.7124123354 -1.2578932424
 H -2.0912881686  0.0827800419 -0.2838208793
11
step 59
 C  1.2979313859  0.0819534975  0.2944027249
 C -0.1684928500  0.1932913639  0.6901826116
 C -1.0620704939  0.1399278507 -0.5596311321