11
step 0
 C  1.2980423739 -0.0652391529  0.1672596767
 C -0.1942037267 -0.0088078703  0.5484245046
 C -1.1147771333  0.0734542169 -0.6848820268
 H  1.9181821665 -0.1223066954  1.0569490812
 H  1.5855467520  0.8204389804 -0.3916211973
 H  1.5047318040 -0.9359988450 -0.4479558838
 H -0.4502406892 -0.8931049315  1.1294646969
 H -0.3696702596  0.8559732503  1.1860049953
 H -0.8968172877  0.9631459339 -1.2682994890
 H -0.9780336584 -0.7932667988 -1.3248254415
 H -2.1570603408  0.1119119124 -0.3823189183
11
step 1
 C  1.2994626808 -0.0638891560  0.1690915867
 C -0.1955070573 -0.0025610579  0.5540945415
 C -1.1129877122  0.0748273601 -0.6839835487
 H  1.9285105073 -0.1307885366  1.0650665822
 H  1.5768564550  0.8285692076 -0.3950042270
 H  1.4967276412 -0.9275129285 -0.4503816053
 H -0.4474030570 -0.8969108146  1.1271822931
 H -0.3635206762  0.8524822000  1.1858634587
 H -0.9070600475  0.9680546423 -1.2673118314
 H -0.9759172127 -0.8067577837 -1.3274768005
 H -2.1534615207  0.1106868672 -0.3889404510
11
step 2
 C  1.3008926716 -0.0624641767  0.1709874061
 C -0.1967600616  0.0035281523  0.5596694427
 C -1.1111752695  0.0761120940 -0.6831540466
 H  1.9381816640 -0.1390383428  1.0721576270
 H  1.5682895143  0.8361848996 -0.3979266434
 H  1.4888821756 -0.9195295459 -0.4531002447
 H -0.4446074083 -0.9002879295  1.1248758768
 H -0.3577292132  0.8500317611  1.1865463264
 H -0.9170614999  0.9728083153 -1.2663905977
 H -0.9738505293 -0.8189089662 -1.3293020319
 H -2.1503155190  0.1094088957 -0.3952770051
11
step 3
 C  1.3023380856 -0.0608969305  0.1730023539
 C -0.1979181161  0.0093263533  0.5650697762
 C -1.1093194826  0.0772412655 -0.6824459073
 H  1.9466576265 -0.1468503839  1.0773716326
 H  1.5599683984  0.8428522672 -0.3999841204
 H  1.4813164301 -0.9124650123 -0.4563658641
 H -0.4418968092 -0.9028562576  1.1225410065
 H -0.3526105608  0.8495774579  1.1888183794
 H -0.9266098498  0.9772624371 -1.2655892143
 H -0.9718516217 -0.8286224429 -1.3296415843
 H -2.1480066400  0.1080189965 -0.4010843395
11
step 4
 C  1.3037946338 -0.0591388511  0.1751719525
 C -0.1989422413  0.0147281332  0.5702292974
 C -1.1074115661  0.0781717725 -0.6818917587
 H  1.9535438982 -0.1540398232  1.0800861385
 H  1.5520381731  0.8482446365 -0.4008519165
 H  1.4741204719 -0.9066073179 -0.4603442598
 H -0.4393253739 -0.9043074750  1.1202110063
 H -0.3484168195  0.8518282972  1.1932574734
 H -0.9355061002  0.9812770117 -1.2649485380
 H -0.9699036625 -0.8350912612 -1.3280452918
 H -2.1468024429  0.1064570923 -0.4061613473
11
step 5
 C  1.3052464842 -0.0571656175  0.1775077895
 C -0.1998011911  0.0196708813  0.5751035742
 C -1.1054575738  0.0788870285 -0.6815018443
 H  1.9586172085 -0.1604535344  1.0799449450
 H  1.5446664251  0.8521727691 -0.4003060412
 H  1.4673476583 -0.9020733847 -0.4650797230
 H -0.4369610215 -0.9044346578  1.1179661942
 H -0.3453133175  0.8571063381  1.2001457626
 H -0.9435689239  0.9847223417 -1.2644969426
 H -0.9679522336 -0.8378404770 -1.3242935324
 H -2.1468125865  0.1046655003 -0.4103628110
11
step 6
 C  1.3066655957 -0.0549793419  0.1799959626
 C -0.2004724381  0.0241427395  0.5796748241
 C -1.1034795429  0.0793973235 -0.6812632097
 H  1.9618385324 -0.1659787811  1.0768738973
 H  1.5380397520  0.8546011670 -0.3982351492
 H  1.4610152396 -0.8987935618 -0.4704805303
 H -0.4348857060 -0.9031502553  1.1159363151
 H -0.3433686788  0.8652735646  1.2094103682
 H -0.9506387068  0.9874855047 -1.2642518494
 H -0.9659054174 -0.8367442832 -1.3184019199
 H -2.1479715534  0.1025929298 -0.4136050285
11
step 7
 C  1.3080115682 -0.0526071585  0.1825981502
 C -0.2009418993  0.0281813140  0.5839512011
 C -1.1015142806  0.0797389609 -0.6811401391
 H  1.9633552247 -0.1705501504  1.0710802349
 H  1.5323575492  0.8556512043 -0.3946439685
 H  1.4551106395 -0.8965266838 -0.4763271312
 H -0.4331930616 -0.9004905335  1.1142962364
 H -0.3425611558  0.8757531732  1.2206344503
 H -0.9565808212  0.9894772571 -1.2642222019
 H -0.9636352936 -0.8320285504 -1.3106163509
 H -2.1500485848  0.1001983552 -0.4158642754
11
step 8
 C  1.3092321102 -0.0500965979  0.1852550937
 C -0.2012027366  0.0318638218  0.5879609712
 C -1.0996100085  0.0799724132 -0.6810756641
 H  1.9634931153 -0.1741546687  1.0630370976
 H  1.5278236214  0.8555916429 -0.3896486462
 H  1.4496013214 -0.8949016096 -0.4823014885
 H -0.4319835471 -0.8966059470  1.1132552596
 H -0.3427975955  0.8876377725  1.2331340868
 H -0.9612881894  0.9906389956 -1.2644113937
 H -0.9609805022 -0.8242605463 -1.3013997499
 H -2.1526823463  0.0974541446 -0.4171693353
11
step 9
 C  1.3102645904 -0.0475086406  0.1878921735
 C -0.2012538392  0.0352919471  0.5917439188
 C -1.0978214260  0.0801790497 -0.6809943908
 H  1.9627360918 -0.1768341441  1.0534502403
 H  1.5246360135  0.8548164004 -0.3834637308
 H  1.4444456061 -0.8934755121 -0.4880311953
 H -0.4313573178 -0.8917380688  1.1130406587
 H -0.3439380542  0.8998471325  1.2460738919
 H -0.9646831174  0.9909492592 -1.2648202274
 H -0.9577506444 -0.8143195720 -1.2914065027
 H -2.1554330177  0.0943479988 -0.4175900844
11
step 10
 C  1.3110393093 -0.0449095595  0.1904267548
 C -0.2010985411  0.0385754276  0.5953428247
 C -1.0962038910  0.0804554520 -0.6808072184
 H  1.9616883288 -0.1786829089  1.0432011598
 H  1.5229754341  0.8538091571 -0.3763802277
 H  1.4396022225 -0.8917972608 -0.4931396693
 H -0.4314052637 -0.8861850533  1.1138765057
 H -0.3458194836  0.9112901180  1.2585877896
 H -0.9667183098  0.9904290789 -1.2654495353
 H -0.9537343101 -0.8033359889 -1.2814366389
 H -2.1578421850  0.0908835293 -0.4172242197
11
step 11
 C  1.3114850108 -0.0423626169  0.1927770102
 C -0.2007438452  0.0418174046  0.5987969716
 C -1.0948073192  0.0809042085 -0.6804186062
 H  1.9610143671 -0.1798388536  1.0332615586
 H  1.5229926977  0.8530951502 -0.3687347480
 H  1.4350373332 -0.8894659189 -0.4972942553
 H -0.4321989327 -0.8802592831  1.1159595684
 H -0.3482747431  0.9209982100  1.2698803429
 H -0.9673770000  0.9891452953 -1.2663020673
 H -0.9487132427 -0.7925847878 -1.2723611723
 H -2.1594913595  0.0870795983 -0.4161838505
11
step 12
 C  1.3115366989 -0.0399204758  0.1948717608
 C -0.2002001401  0.0451029942  0.6021382656
 C -1.0936702073  0.0816207435 -0.6797366328
 H  1.9613561907 -0.1804665728  1.0245800117
 H  1.5247957146  0.8531825705 -0.3608713802
 H  1.4307287835 -0.8861779775 -0.5002464270
 H -0.4337803776 -0.8742427068  1.1194349362
 H -0.3511461685  0.9282180883  1.2792987531
 H -0.9666722612  0.9872107961 -1.2673831580
 H -0.9424849690 -0.7833277872 -1.2650152657
 H -2.1600522383  0.0829687487 -0.4145831500
11
step 13
 C  1.3111450133 -0.0376189454  0.1966603820
 C -0.1994812075  0.0484913486  0.6053894752
 C -1.0928140799  0.0826774253 -0.6786850248
 H  1.9632348004 -0.1807338863  1.0179528480
 H  1.5284367112  0.8544990961 -0.3531002760
 H  1.4266679995 -0.8817605225 -0.5018609914
 H -0.4361532355 -0.8683467875  1.1243747111
 H -0.3542947400  0.9324662492  1.2863772146
 H -0.9646457669  0.9847805323 -1.2686995814
 H -0.9348941995 -0.7766185802 -1.2600687646
 H -2.1593245706  0.0785950913 -0.4125278555
11
step 14
 C  1.3102854639 -0.0354724776  0.1981211187
 C -0.1986042523  0.0520109276  0.6085636357
 C -1.0922388116  0.0841084913 -0.6772148644
 H  1.9669543352 -0.1807863292  1.0139039574
 H  1.5339006598  0.8573323558 -0.3456592146
 H  1.4228602083 -0.8761898108 -0.5021331491
 H -0.4392764630 -0.8626841258  1.1307632408
 H -0.3576064721  0.9335555007  1.2908606123
 H -0.9613664066  0.9820423089 -1.2702560107
 H -0.9258689773 -0.7731115790 -1.2579010375
 H -2.1572595963  0.0740118940 -0.4101072261
11
step 15
 C  1.3089651938 -0.0334717239  0.1992657729
 C -0.1975897100  0.0556576271  0.6116637500
 C -1.0919196054  0.0859007863 -0.6753126925
 H  1.9725337452 -0.1807266003  1.0126047916
 H  1.5410963467  0.8617850503 -0.3386854511
 H  1.4193235376 -0.8695954132 -0.5011930498
 H -0.4430619963 -0.8572571222  1.1384917167
 H -0.3609974159  0.9316029532  1.2927145549
 H -0.9569291504  0.9792019712 -1.2720487842
 H -0.9154523994 -0.7729342603 -1.2585184103
 H -2.1539680436  0.0692789521 -0.4073890341
11
step 16
 C  1.3072251979 -0.0315834605  0.2001392035
 C -0.1964606713  0.0593955391  0.6146823615
 C -1.0918065915  0.0879942696 -0.6730022758
 H  1.9796878605 -0.1806053201  1.0138589443
 H  1.5498519639  0.8677546122 -0.3322039697
 H  1.4160872357 -0.8622496021 -0.4992973358
 H -0.4473771444 -0.8519656878  1.1473635579
 H -0.3644179615  0.9270247731  1.2921255884
 H -0.9514543118  0.9764638806 -1.2740573250
 H -0.9038185250 -0.7756704528 -1.2615453212
 H -2.1497118522  0.0644597689 -0.4044181443
11
step 17
 C  1.3051371844 -0.0297532165  0.2008134279
 C -0.1952419141  0.0631603146  0.6176011542
 C -1.0918277297  0.0902926057 -0.6703394922
 H  1.9878651869 -0.1804253976  1.0171557730
 H  1.5599171913  0.8749430279 -0.3261347621
 H  1.4131889212 -0.8545409905 -0.4968067978
 H -0.4520518057 -0.8466319857  1.1571101791
 H -0.3678561027  0.9205170067  1.2894909197
 H -0.9450869780  0.9740092689 -1.2762344908
 H -0.8912649726 -0.7804610804 -1.2662936958
 H -2.1448788587  0.0596187403 -0.4012190809
11
step 18
 C  1.3027959500 -0.0279107998  0.2013776418
 C -0.1939587139  0.0668652763  0.6203912583
 C -1.0918949682  0.0926801416 -0.6674022802
 H  1.9963310300 -0.1801571004  1.0217749330
 H  1.5709730346  0.8828957821 -0.3203170669
 H  1.4106705723 -0.8469316875 -0.4941495700
 H -0.4568897925 -0.8410368593  1.1674149809
 H -0.3713380765  0.9130162387  1.2853926004
 H -0.9379960066  0.9719764847 -1.2784979985
 H -0.8781832713 -0.7861828327 -1.2718851302
 H -2.1399404797  0.0548188198 -0.3978026535
11
step 19
 C  1.3003093327 -0.0259784692  0.2019263309
 C -0.1926357904  0.0704105154  0.6230152313
 C -1.0919128265  0.0950398094 -0.6642787918
 H  2.0042721932 -0.1797577498  1.0269111012
 H  1.5826492225  0.8910622577 -0.3145445433
 H  1.4085730435 -0.8398993341 -0.4917710702
 H -0.4616828624 -0.8349609429  1.1779421510
 H -0.3749236213  0.9056308069  1.2805485418
 H -0.9303718348  0.9704474447 -1.2807254283
 H -0.8650157095 -0.7916448820 -1.2773866944
 H -2.1353945877  0.0501203103 -0.3941761681
11
step 20
 C  1.2977879807 -0.0238808396  0.2025476137
 C -0.1912968365  0.0736950096  0.6254315440
 C -1.0917880915  0.0972675902 -0.6610564141
 H  2.0108988862 -0.1791901948  1.0317902551
 H  1.5945472901  0.8988659397 -0.3086036849
 H  1.4069293073 -0.8338694051 -0.4900752668
 H -0.4662256824 -0.8282236850  1.1883664196
 H -0.3786926723  0.8995352081  1.2757341305
 H -0.9224224797  0.9694434107 -1.2827548484
 H -0.8522097510 -0.7957555638 -1.2819282177
 H -2.1316991891  0.0455812738 -0.3903559971
11
step 21
 C  1.2953365158 -0.0215549999  0.2033134000
 C -0.1899649675  0.0766311340  0.6276016953
 C -1.0914392060  0.0992816874 -0.6578130329
 H  2.0155277559 -0.1784367225  1.0357604784
 H  1.6062663628  0.9057726966 -0.3023087197
 H  1.4057572830 -0.8291479497 -0.4893659194
 H -0.4703299733 -0.8207151070  1.1984002639
 H -0.3827216596  0.8958294569  1.2716756531
 H -0.9143674894  0.9689309198 -1.2843918919
 H -0.8401782691 -0.7976380196 -1.2847863196
 H -2.1292062491  0.0412595419 -0.3863804110
11
step 22
 C  1.2930467100 -0.0189590679  0.2042723586
 C -0.1886640605  0.0791597349  0.6294988475
 C -1.0908040711  0.1010267727 -0.6546107908
 H  2.0176404245 -0.1775078001  1.0383528998
 H  1.6174285402  0.9113484784 -0.2955288011
 H  1.4050537388 -0.8258681501 -0.4897992475
 H -0.4738364202 -0.8124172131  1.2078159557
 H -0.3870514173  0.8953812103  1.2689301190
 H -0.9064300857  0.9688362502 -1.2854226200
 H -0.8292690804 -0.7966969476 -1.2854357610
 H -2.1281073588  0.0372156154 -0.3823199104
11
step 23
 C  1.2909925449 -0.0160776667  0.2054461995
 C -0.1874204194  0.0812626739  0.6311156069
 C -1.0898453112  0.1024748162 -0.6514920212
 H  2.0169194451 -0.1764466874  1.0393165736
 H  1.6277015214  0.9153020290 -0.2882060242
 H  1.4047909480 -0.8239632687 -0.4913589182
 H -0.4766234262 -0.8034137725  1.2164608828
 H -0.3916542052  0.8986853911  1.2677801491
 H -0.8988281293  0.9690651117 -1.2856302944
 H -0.8197434194 -0.7926497782 -1.2835764389
 H -2.1284022819  0.0335151902 -0.3782822793
11
step 24
 C  1.2892267042 -0.0129235075  0.2068293189
 C -0.1862638182  0.0829693605  0.6324681499
 C -1.0885525173  0.1036241352 -0.6484769126
 H  2.0132665547 -0.1753313256  1.0386337926
 H  1.6368171487  0.9175117220 -0.2803646380
 H  1.4049172809 -0.8231729090 -0.4938595335
 H -0.4786122216 -0.7938883991  1.2242653813
 H -0.3964112444  0.9057821399  1.2681772671
 H -0.8917647330  0.9695237252 -1.2848136285
 H -0.8117612194 -0.7855363445 -1.2791452215
 H -2.1298971826  0.0302299639 -0.3744104755
11
step 25
 C  1.2877781605 -0.0095351605  0.2083914128
 C -0.1852270858  0.0843550527  0.6335949616
 C -1.0869415184  0.1044977929 -0.6455625792
 H  2.0068072543 -0.1742743739  1.0365208678
 H  1.6445852924  0.9180373923 -0.2721124470
 H  1.4053618585 -0.8230809583 -0.4969775095
 H -0.4797681070 -0.7841115147  1.2312427455
 H -0.4011106134  0.9162600165  1.2697544658
 H -0.8854193377  0.9701379372 -1.2828041865
 H -0.8053712846 -0.7757159684 -1.2723186033
 H -2.1322327468  0.0274358646 -0.3708731133
11
step 26
 C  1.2866509032 -0.0059718282  0.2100823563
 C -0.1843440551  0.0855312695  0.6345506379
 C -1.0850511497  0.1051416817 -0.6427234568
 H  1.9978827282 -0.1734213473  1.0334157945
 H  1.6509026587  0.9171180741 -0.2636351104
 H  1.4060422658 -0.8231758896 -0.5003015952
 H -0.4800977342 -0.7744172312  1.2374812406
 H -0.4054678370  0.9293418264  1.2719035813
 H -0.8799399431  0.9708680281 -1.2794810938
 H -0.8005060896 -0.7638534433 -1.2635071437
 H -2.1349359468  0.0252087083 -0.3678490548
11
step 27
 C  1.2858242928 -0.0023062779  0.2118386273
 C -0.1836464835  0.0866310461  0.6353971256
 C -1.0829381507  0.1056218222 -0.6399132744
 H  1.9870266491 -0.1729458295  1.0299501725
 H  1.6557557483  0.9151556028 -0.2551834168
 H  1.4068736455 -0.8229204239 -0.5033920042
 H -0.4796424825 -0.7651717402  1.2431281913
 H -0.4091625543  0.9440228451  1.2738903334
 H -0.8754370378  0.9717179393 -1.2747818172
 H -0.7969833707 -0.7508878725 -1.2533373404
 H -2.1374852213  0.0236181271 -0.3655088147
11
step 28
 C  1.2852557952  0.0013829699  0.2135907969
 C -0.1831609459  0.0877926633  0.6361952990
 C -1.0806707083  0.1060197988 -0.6370691744
 H  1.9749221897 -0.1730400119  1.0268998713
 H  1.6592167333  0.9126831326 -0.2470531937
 H  1.4077774746 -0.8218185328 -0.5058378575
 H -0.4784683583 -0.7567356304  1.2483668917
 H -0.4118799503  0.9592213141  1.2749730902
 H -0.8719796342  0.9727384935 -1.2687082891
 H -0.7945189957 -0.7379725561 -1.2426123249
 H -2.1393782631  0.0227210599 -0.3639957603
11
step 29
 C  1.2848867410  0.0050193819  0.2152718897
 C -0.1829065270  0.0891448160  0.6369988742
 C -1.0783209374  0.1064250824 -0.6341186825
 H  1.9623352883 -0.1738986716  1.0251089701
 H  1.6614309644  0.9103176988 -0.2395577232
 H  1.4086888307 -0.8194716612 -0.5073058961
 H -0.4766534946 -0.7494236560  1.2533883234
 H -0.4133470105  0.9739099323  1.2745004944
 H -0.8695936685  0.9740247479 -1.2613280462
 H -0.7927565133 -0.7263727749 -1.2322416169
 H -2.1401936652  0.0225560513 -0.3634095817
11
step 30
 C  1.2846511530  0.0085355487  0.2168264297
 C -0.1828936277  0.0907948167  0.6378512142
 C -1.0759565347  0.1069235924 -0.6309898592
 H  1.9500252956 -0.1756956310  1.0253862379
 H  1.6625956182  0.9086977014 -0.2329936216
 H  1.4095616330 -0.8156204239 -0.5075771377
 H -0.4742751056 -0.7434666076  1.2583612087
 H -0.4133584833  0.9872140683  1.2719782322
 H -0.8682628621  0.9757079089 -1.2527703556
 H -0.7913164580 -0.7173153261 -1.2231351210
 H -2.1396407686  0.0231391790 -0.3637936674
11
step 31
 C  1.2844866261  0.0118793516  0.2182195362
 C -0.1831236989  0.0928202547  0.6387844170
 C -1.0736322068  0.1075834276 -0.6276238696
 H  1.9386434421 -0.1785541207  1.0283834785
 H  1.6629307992  0.9084096872 -0.2276030342
 H  1.4103719030 -0.8101711242 -0.5065707766
 H -0.4713983026 -0.7389805851  1.2634051405
 H -0.4117921537  0.9984768397  1.2671071913
 H -0.8679319457  0.9779423296 -1.2432175520
 H -0.7898615491 -0.7118019123 -1.2160697619
 H -2.1375946832  0.0244618691 -0.3651272849
11
step 32
 C  1.2843450840  0.0150188265  0.2194446538
 C -0.1835894504  0.0952638714  0.6398195752
 C -1.0713821913  0.1084409032 -0.6239876134
 H  1.9286397828 -0.1825159816  1.0344777553
 H  1.6626468923  0.9099133210 -0.2235372198
 H  1.4111193477 -0.8032076065 -0.5043556116
 H -0.4680691294 -0.7359486040  1.2685717357
 H -0.4086156760  1.0072985721  1.2598006273
 H -0.8685119616  0.9808881453 -1.2328920523
 H -0.7881637590 -0.7104241740 -1.2115558061
 H -2.1341148478  0.0264904112 -0.3673230484
11
step 33
 C  1.2842006473  0.0179453272  0.2205279210
 C -0.1842751015  0.0981312203  0.6409671886
 C -1.0692157756  0.1094915738 -0.6200828794
 H  1.9202038369 -0.1875177125  1.0436878743
 H  1.6619141533  0.9134771934 -0.2208281964
 H  1.4118274840 -0.7949884543 -0.5011488505
 H -0.4643133427 -0.7342178567  1.2738375849
 H -0.4038876655  1.0135590202  1.2501878072
 H -0.8698871991  0.9846903268 -1.2220397935
 H -0.7861518969 -0.7132363129 -1.2097430168
 H -2.1294456670  0.0291668259 -0.3702300253
11
step 34
 C  1.2840524168  0.0206744671  0.2215274191
 C -0.1851564644  0.1013907797  0.6422271934
 C -1.0671174768  0.1106901618 -0.6159489447
 H  1.9132573023 -0.1933815925  1.0556516209
 H  1.6608411867  0.9191388402 -0.2193749647
 H  1.4125421877 -0.7859281945 -0.4973009957
 H -0.4601410564 -0.7335133916  1.2791104235
 H -0.3977547174  1.0174273488  1.2386083160
 H -0.8719232005  0.9894555917 -1.2109112659
 H -0.7839214828 -0.7197329799 -1.2104006614
 H -2.1239974046  0.0324109297 -0.3736427301
11
step 35
 C  1.2839216567  0.0232442570  0.2225267664
 C -0.1862009688  0.1049764614  0.6435886998
 C -1.0650523149  0.1119600176 -0.6116578010
 H  1.9075001513 -0.1998262088  1.0696725858
 H  1.6594672432  0.9266985388 -0.2189483019
 H  1.4133281426 -0.7765602183 -0.4932647037
 H -0.4555558982 -0.7334662222  1.2842471881
 H -0.3904443764  1.0193592159  1.2255968656
 H -0.8744751650  0.9952296951 -1.1997419321
 H -0.7817034061 -0.7289423112 -1.2129781855
 H -2.1183056953  0.0361237872 -0.3773158877
11
step 36
 C  1.2838447812  0.0257100312  0.2236241301
 C -0.1873679809  0.1087928040  0.6450300827
 C -1.0629750749  0.1132088688 -0.6073039124
 H  1.9024934118 -0.2064943176  1.0848226400
 H  1.6577695483  0.9357487162 -0.2192137725
 H  1.4142625042 -0.7674799757 -0.4895461872
 H -0.4505663621 -0.7336517343  1.2890803519
 H -0.3822526297  1.0200741088  1.2118545545
 H -0.8773959708  1.0019786341 -1.1887345048
 H -0.7798049130 -0.7395993716 -1.2167217794
 H -2.1129698739  0.0401929039 -0.3809840563
11
step 37
 C  1.2838646393  0.0281363309  0.2249188559
 C -0.1886098439  0.1127234060  0.6465203577
 C -1.0608415044  0.1143457468 -0.6029918176
 H  1.8977532783 -0.2129907061  1.1000710964
 H  1.6556827313  0.9457321227 -0.2197681696
 H  1.4154254451 -0.7592706363 -0.4866407779
 H -0.4451968777 -0.7336332179  1.2934478040
 H -0.3735239995  1.0205014572  1.1982005111
 H -0.8805429979  1.0095775661 -1.1780458881
 H -0.7785443117 -0.7503431234 -1.2208069863
 H -2.1085743506  0.0444992006 -0.3843840689
11
step 38
 C  1.2840224377  0.0305867874  0.2264981777
 C -0.1898739135  0.1166431004  0.6480226476
 C -1.0586192865  0.1152948446 -0.5988245001
 H  1.8928346526 -0.2189213072  1.1144108467
 H  1.6531247015  0.9560159506 -0.2201819767
 H  1.4168882559 -0.7524195913 -0.4849595765
 H -0.4394966544 -0.7330054058  1.2972216643
 H -0.3646233671  1.0216840334  1.1854992383
 H -0.8837830769  1.0178103189 -1.1677811398
 H -0.7781966669 -0.7598888464 -1.2244543275
 H -2.1056028967  0.0489250646 -0.3872771848
11
step 39
 C  1.2843516288  0.0331138752  0.2284260978
 C -0.1911055058  0.1204336909  0.6494999161
 C -1.0562969878  0.1160044024 -0.5948941111
 H  1.8873925713 -0.2239270390  1.1269618343
 H  1.6500229539  0.9659679068 -0.2200405324
 H  1.4187010098 -0.7472406575 -0.4847599289
 H -0.4335452313 -0.7314336878  1.3003324508
 H -0.3559014774  1.0246354108  1.1745651672
 H -0.8869952735  1.0263804486 -1.1579955103
 H -0.7789578859 -0.7671530717 -1.2270127398
 H -2.1043608309  0.0533620356 -0.3894673798
11
step 40
 C  1.2848739639  0.0357507139  0.2307358950
 C -0.1922512452  0.1240016015  0.6509221003
 C -1.0538896734  0.1164508509 -0.5912753717
 H  1.8812200690 -0.2277095481  1.1370449572
 H  1.6463368250  0.9750233364 -0.2189787894
 H  1.4208827596 -0.7438198624 -0.4860955473
 H -0.4274544574 -0.7286856539  1.3027863326
 H -0.3476599337  1.0301663711  1.1660566312
 H -0.8900717180  1.0349326105 -1.1487038820
 H -0.7809262331 -0.7713309617 -1.2280113110
 H -2.1049217430  0.0577164626 -0.3908127936
11
step 41
 C  1.2855972050  0.0385066530  0.2334269816
 C -0.1932620101  0.1272939631  0.6522727321
 C -1.0514404661  0.1166395580 -0.5880212470
 H  1.8742668600 -0.2300490712  1.1442287129
 H  1.6420734561  0.9827375112 -0.2167074511
 H  1.4234170467 -0.7419990706 -0.4887995016
 H -0.4213670966 -0.7246523864  1.3046742641
 H -0.3401242864  1.0387179107  1.1603825784
 H -0.8929170998  1.0430813418 -1.1398954522
 H -0.7840963933 -0.7719379929 -1.2271876105
 H -2.1071114212  0.0619120283 -0.3912289689
11
step 42
 C  1.2865138503  0.0413672822  0.2364660156
 C -0.1940947577  0.1303086430  0.6535527912
 C -1.0490180524  0.1166036386 -0.5851602599
 H  1.8666445359 -0.2308160324  1.1483545976
 H  1.6372970533  0.9888217008 -0.2130305270
 H  1.4262540156 -0.7414017312 -0.4925049167
 H -0.4154523719 -0.7193573704  1.3061723139
 H -0.3334328780  1.0502516862  1.1576489816
 H -0.8954476131  1.0504436682 -1.1315507818
 H -0.7883610447 -0.7688294611 -1.2245017047
 H -2.1105327039  0.0658891066 -0.3906845551
11
step 43
 C  1.2876005220  0.0442982818  0.2397914684
 C -0.1947130049  0.1330947598  0.6547804069
 C -1.0467108606  0.1164017996 -0.5826949425
 H  1.8586223232 -0.2299777808  1.1495462897
 H  1.6321319704  0.9931641881 -0.2078553635
 H  1.4293183465 -0.7414931552 -0.4966976782
 H -0.4098986879 -0.7129512541  1.3075325792
 H -0.3276436596  1.0642376314  1.1576620244
 H -0.8975900234  1.0566721537 -1.1236584386
 H -0.7935167380 -0.7622066874 -1.2201415967
 H -2.1146246982  0.0696019223 -0.3891917337
11
step 44
 C  1.2888180933  0.0472516911  0.2433205213
 C -0.1950863635  0.1357432613  0.6559867860
 C -1.0446190994  0.1161154571 -0.5806012958
 H  1.8506145444 -0.2276006048  1.1482038362
 H  1.6267602971  0.9958377997 -0.2011960812
 H  1.4325206654 -0.7416597521 -0.5007879106
 H -0.4049037316 -0.7056913904  1.3090641159
 H -0.3227541778  1.0797438029  1.1599850110
 H -0.8992812478  1.0614856656 -1.1162291510
 H -0.7992732958 -0.7526113114 -1.2145206578
 H -2.1187426295  0.0730149335 -0.3867941524
11
step 45
 C  1.2901129854  0.0501730044  0.2469573429
 C -0.1951898576  0.1383704323  0.6572102821
 C -1.0428458751  0.1158446332 -0.5788296442
 H  1.8431580408 -0.2238455233  1.1449793530
 H  1.6214143800  0.9970944490 -0.1931705898
 H  1.4357697127 -0.7412905212 -0.5041853507
 H -0.4006623086 -0.6979065599  1.3111038686
 H -0.3187259571  1.0955959987  1.1640278038
 H -0.9004685264  1.0646957752 -1.1093062351
 H -0.8052681636 -0.7409009902 -1.2082619981
 H -2.1222428824  0.0760996757 -0.3835546825
11
step 46
 C  1.2914202097  0.0530078770  0.2506023121
 C -0.1950036211  0.1410988233  0.6584908907
 C -1.0414882864  0.1157015942 -0.5773077487
 H  1.8368758876 -0.2189551317  1.1407271513
 H  1.6163644079  0.9973456639 -0.1839905592
 H  1.4389832023 -0.7398484975 -0.5063671762
 H -0.3973526542 -0.6899496817  1.3139790212
 H -0.3155055776  1.1105574738  1.1691419785
 H -0.9011100509  1.0662270867 -1.1029717602
 H -0.8110886120 -0.7281933051 -1.2021599456
 H -2.1245608048  0.0788327495 -0.3795443420
11
step 47
 C  1.2926686166  0.0557078338  0.2541621883
 C -0.1945131723  0.1440395928  0.6598666329
 C -1.0406289586  0.1158010926 -0.5759472438
 H  1.8324237164 -0.2132288287  1.1364209886
 H  1.6119011129  0.9971271113 -0.1739433967
 H  1.4420963660 -0.7369261959 -0.5069322831
 H -0.3951224543 -0.6821443928  1.3179644586
 H -0.3130388382  1.1234873389  1.1747018652
 H -0.9011758578  1.0661298273 -1.0973482970
 H -0.8163048030 -0.7157629567 -1.1971070857
 H -2.1252739273  0.0811950575 -0.3748328433
11
step 48
 C  1.2937884154  0.0582349532  0.2575611923
 C -0.1937100997  0.1472786462  0.6613720093
 C -1.0403282252  0.1162467776 -0.5746540493
 H  1.8304178757 -0.2069859174  1.1330366404
 H  1.6083139079  0.9970456109 -0.1633657944
 H  1.4450680629 -0.7322842323 -0.5056406002
 H -0.3940762125 -0.6747342061  1.3232414517
 H -0.3112782626  1.1334575100  1.1801634555
 H -0.9006489082  1.0645828127 -1.0925961137
 H -0.8205146599 -0.7048850829 -1.1939802306
 H -2.1241477909  0.0831719945 -0.3694807551
11
step 49
 C  1.2947203399  0.0605658838  0.2607522614
 C -0.1925928287  0.1508674039  0.6630377041
 C -1.0406172683  0.1171151181 -0.5733421134
 H  1.8313510066 -0.2005205683  1.1314101841
 H  1.6058654635  0.9977096389 -0.1526099211
 H  1.4478847866 -0.7258748005 -0.5024383478
 H -0.3942656930 -0.6678441647  1.3298651247
 H -0.3101861471  1.1398273851  1.1851025137
 H -0.8995265098  1.0618846009 -1.0889054516
 H -0.8233967103 -0.6966381522 -1.1934933335
 H -2.1211641028  0.0847541046 -0.3635332720
11
step 50
 C  1.2954250032  0.0626956304  0.2637266243
 C -0.1911671600  0.1548180425  0.6648903470
 C -1.0414929615  0.1184406093 -0.5719479169
 H  1.8355089867 -0.1940580606  1.1320981238
 H  1.6047647987  0.9996489408 -0.1420056763
 H  1.4505628928 -0.7178515413 -0.4974700883
 H -0.3956848392 -0.6614633193  1.3377476738
 H -0.3097355636  1.1422856388  1.1892375033
 H -0.8978224752  1.0584306775 -1.0864832234
 H -0.8247607380 -0.6917086531 -1.1960472648
 H -2.1165311875  0.0859377170 -0.3570159257
11
step 51
 C  1.2958903823  0.0646411711  0.2665190257
 C -0.1894463719  0.1591026082  0.6669513788
 C -1.0429156015  0.1202075674 -0.5704416757
 H  1.8429093766 -0.1877247769  1.1352761309
 H  1.6051422142  1.0032345916 -0.1318248519
 H  1.4531489902 -0.7085652646 -0.4910765708
 H -0.3982698846 -0.6554519199  1.3466614171
 H -0.3099110747  1.1408698923  1.1924429445
 H -0.8955705020  1.0546755247 -1.0855335290
 H -0.8245819075 -0.6902590638 -1.2016230284
 H -2.1106752647  0.0867252312 -0.3499330235
11
step 52
 C  1.2961354906  0.0664441610  0.2692062332
 C -0.1874508039  0.1636553404  0.6692347171
 C -1.0448107150  0.1223526218 -0.5688315484
 H  1.8532801559 -0.1815417426  1.1407086917
 H  1.6070303355  1.0086153012 -0.1222543275
 H  1.4557178072 -0.6985421654 -0.4837748236
 H -0.4019045616 -0.6495713840  1.3562614672
 H -0.3107100288  1.1359706286  1.1947562805
 H -0.8928290392  1.0510810727 -1.0862322128
 H -0.8230064607 -0.6919091236 -1.2097595675
 H -2.1042092475  0.0871250435 -0.3422699324
11
step 53
 C  1.2962093092  0.0681711257  0.2718980664
 C -0.1852069450  0.1683777591  0.6717436745
 C -1.0470754895  0.1247779674 -0.5671596932
 H  1.8660867954 -0.1754431396  1.1478002602
 H  1.6103554949  1.0156857923 -0.1133843405
 H  1.4583661965 -0.6884393248 -0.4762152668
 H -0.4064296284 -0.6435301423  1.3661237230
 H -0.3121443789  1.1283186334  1.1963776341
 H -0.8896872690  1.0480572771 -1.0886975274
 H -0.8203266054 -0.6958368357 -1.2196261163
 H -2.0978752659  0.0871514990 -0.3340003925
11
step 54
 C  1.2961855348  0.0699093799  0.2747223075
 C -0.1827461704  0.1731464725  0.6744682048
 C -1.0495893651  0.1273710046 -0.5654921123
 H  1.8806003839 -0.1693118734  1.1557105909
 H  1.6149421220  1.0240968538 -0.1052141972
 H  1.4612017260 -0.6789734991 -0.4691117885
 H -0.4116554868 -0.6370360782  1.3757913749
 H -0.3142419494  1.1189480519  1.1976579125
 H -0.8862709216  1.0459050231 -1.0929613467
 H -0.8169332596 -0.7009576997 -1.2301612736
 H -2.0924597980  0.0868255355 -0.3250996750
11
step 55
 C  1.2961548534  0.0717579065  0.2778063873
 C -0.1801034088  0.1778240231  0.6773838371
 C -1.0522273638  0.1300240949 -0.5639058083
 H  1.8959881809 -0.1630196516  1.1634989403
 H  1.6205299298  1.0333057377 -0.0976729022
 H  1.4643251279 -0.6708252173 -0.4631465234
 H -0.4173765070 -0.6298467214  1.3848227045
 H -0.3170449411  1.1091226524  1.1990677646
 H -0.8827458369  1.0447737858 -1.0989471238
 H -0.8132609589 -0.7061204445 -1.2402320074
 H -2.0886870920  0.0861766096 -0.3155633044
11
step 56
 C  1.2962166627  0.0738143366  0.2812592371
 C -0.1773161334  0.1822730924  0.6804534727
 C -1.0548740555  0.1326494900 -0.5624763371
 H  1.9114059289 -0.1564609265  1.1702617885
 H  1.6268006428  1.0426548402 -0.0906484604
 H  1.4678080969 -0.6645306115 -0.4588612466
 H -0.4233857208 -0.6218106908  1.3928341938
 H -0.3206025613  1.1002144574  1.2011399157
 H -0.8793170293  1.0446443591 -1.1064606027
 H -0.8097374382 -0.7102710339 -1.2487730300
 H -2.0871061584  0.0852459356 -0.3054291374
11
step 57
 C  1.2964715097  0.0761609886  0.2851564074
 C -0.1744240570  0.1863736461  0.6836324947
 C -1.0574357435  0.1351874763 -0.5612674383
 H  1.9260771726 -0.1495756424  1.1752417644
 H  1.6334092231  1.0514610657 -0.0840186817
 H  1.4716709893 -0.6603840752 -0.4565580321
 H -0.4294886983 -0.6128967247  1.3995349759
 H -0.3249549083  1.0935349481  1.2043828756
 H -0.8762218020  1.0453406440 -1.1151967164
 H -0.8067444821 -0.7125652061 -1.2548878553
 H -2.0879947297  0.0840902172 -0.2947982845
11
step 58
 C  1.2970145346  0.0788535984  0.2895307847
 C -0.1714696655  0.1900410189  0.6868763839
 C -1.0598486710  0.1376084596 -0.5603232560
 H  1.9393534664 -0.1423609770  1.1779010797
 H  1.6400146308  1.0590995728 -0.0776780108
 H  1.4758671495 -0.6583786930 -0.4562362397
 H -0.4355156064 -0.6032088418  1.4047505768
 H -0.3301078223  1.0901400116  1.2091760579
 H -0.8737169948  1.0465666559 -1.1247620734
 H -0.8045909438 -0.7124331412 -1.2579115925
 H -2.0913046016  0.0827843479 -0.2838488615
11
step 59
 C  1.2979295508  0.0819154516  0.2943700062
 C -0.1684992406  0.1932410985  0.6901486657
 C -1.0620819593  0.1399111094 -0.5596630729