10
step 0
 N -0.0000000000 -0.0000000000  1.1269745215
 C -0.0000000000 -1.1282756354  0.3173848388
 C  0.0000000000  1.1282756354  0.3173848388
 C -0.0000000000  0.7159366566 -0.9690644858
 C  0.0000000000 -0.7159366566 -0.9690644858
 H  0.0000000000  2.1181981059  0.7485917047
 H -0.0000000000 -2.1181981059  0.7485917047
 H -0.0000000000  1.3509263182 -1.8392189784
 H  0.0000000000 -1.3509263182 -1.8392189784
 H -0.0000000000  0.0000000000  2.1473393191
10
step 1
 N  0.0018385359  0.0009967507  1.1282973074
 C -0.0006959578 -1.1224387188  0.3225924483
 C  0.0023627938  1.1292924617  0.3178733458
 C  0.0030215834  0.7141407085 -0.9667053152
 C -0.0024274469 -0.7129730806 -0.9700003325
 H -0.0073231241  2.1262495110  0.7457925569
 H  0.0033994812 -2.1223033703  0.7459342990
 H  0.0066750224  1.3471324256 -1.8397590526
 H -0.0095371110 -1.3464127951 -1.8386422722
 H  0.0026862230 -0.0136838926  2.1443170142
10
step 2
 N  0.0036693597  0.0020045495  1.1295967193
 C -0.0013876598 -1.1167256762  0.3276923237
 C  0.0047129775  1.1303637993  0.3184012243
 C  0.0060275264  0.7123860867 -0.9643979137
 C -0.0048424764 -0.7100454525 -0.9708493127
 H -0.0145298393  2.1336815363  0.7428341472
 H  0.0067435695 -2.1256956470  0.7431946830
 H  0.0132826194  1.3433443366 -1.8401544221
 H -0.0189886565 -1.3420735681 -1.8382262136
 H  0.0053591999 -0.0270558851  2.1419223200
10
step 3
 N  0.0054914710  0.0030398345  1.1308631381
 C -0.0020737090 -1.1112331534  0.3325955558
 C  0.0070464929  1.1315412947  0.3190048776
 C  0.0090135275  0.7107070971 -0.9621826997
 C -0.0072414769 -0.7071798536 -0.9715349543
 H -0.0215253056  2.1399793170  0.7395808547
 H  0.0099876032 -2.1277627049  0.7403198059
 H  0.0197802430  1.3395662039 -1.8402752439
 H -0.0283071395 -1.3380465096 -1.8380960509
 H  0.0080171653 -0.0398708121  2.1406680975
10
step 4
 N  0.0073038984  0.0041199958  1.1321000737
 C -0.0027531363 -1.1060456115  0.3372147620
 C  0.0093595131  1.1328644048  0.3197136138
 C  0.0119755256  0.7091361839 -0.9600945158
 C -0.0096208657 -0.7044034699 -0.9719910101
 H -0.0282138207  2.1447601312  0.7359533296
 H  0.0130870965 -2.1280401273  0.7373127571
 H  0.0261266236  1.3358206453 -1.8400246856
 H -0.0374477776 -1.3344321743 -1.8383273284
 H  0.0106596078 -0.0518984823  2.1408802361
10
step 5
 N  0.0091057628  0.0052622338  1.1333266999
 C -0.0034255175 -1.1012303625  0.3414659802
 C  0.0116488501  1.1343565210  0.3205476282
 C  0.0149096523  0.7077031884 -0.9581605178
 C -0.0119772461 -0.7017448805 -0.9721641440
 H -0.0345040002  2.1478115880  0.7319412885
 H  0.0159999633 -2.1262539534  0.7342399645
 H  0.0322826857  1.3321540114 -1.8393501359
 H -0.0463673317 -1.3312827775 -1.8389307984
 H  0.0132865737 -0.0629196324  2.1426475171
10
step 6
 N  0.0108963243  0.0064823717  1.1345771066
 C -0.0040910621 -1.0968341499  0.3452709277
 C  0.0139123418  1.1360227438  0.3215168938
 C  0.0178121622  0.7064349184 -0.9563987672
 C -0.0143075520 -0.6992339129 -0.9720154664
 H -0.0403139963  2.1491117247  0.7276084273
 H  0.0186886921 -2.1223443706  0.7312310020
 H  0.0382124029  1.3286381992 -1.8382491350
 H -0.0550227909 -1.3285980389 -1.8398467067
 H  0.0158979253 -0.0727225342  2.1458154411
10
step 7
 N  0.0126750008  0.0077938997  1.1358962994
 C -0.0047506543 -1.0928813363  0.3485594166
 C  0.0161491644  1.1378493285  0.3226209391
 C  0.0206793581  0.7053550271 -0.9548176168
 C -0.0166091463 -0.6969009809 -0.9715208561
 H -0.0455759951  2.1488314379  0.7230900983
 H  0.0211221690 -2.1164711577  0.7284725501
 H  0.0438834915  1.3253687361 -1.8367693951
 H -0.0633703673 -1.3263285795 -1.8409493881
 H  0.0184927669 -0.0811031033  2.1500248985
10
step 8
 N  0.0144413559  0.0092074178  1.1373338503
 C -0.0054058341 -1.0893738301  0.3512718023
 C  0.0183600205  1.1398048484  0.3238494991
 C  0.0235075278  0.7044841770 -0.9534159130
 C -0.0188798516 -0.6947759318 -0.9706701856
 H -0.0502393149  2.1473192012  0.7185841390
 H  0.0232768865 -2.1090007690  0.7261974006
 H  0.0492678617  1.3224592408 -1.8350028989
 H -0.0713651805 -1.3243862304 -1.8420613434
 H  0.0210691806 -0.0878697737  2.1547846247
10
step 9
 N  0.0161950593  0.0107305003  1.1389366087
 C -0.0060587068 -1.0862929722  0.3533614139
 C  0.0205471594  1.1418431606  0.3251840097
 C  0.0262929040  0.7038404349 -0.9521839748
 C -0.0211179001 -0.6928865240 -0.9694657216
 H -0.0542714632  2.1450674183  0.7143349742
 H  0.0251372812 -2.1004738262  0.7246686569
 H  0.0543417744  1.3200326982 -1.8330746062
 H -0.0789618208 -1.3226594280 -1.8429743750
 H  0.0236243081 -0.0928523928  2.1595595129
10
step 10
 N  0.0179358893  0.0123678449  1.1407420439
 C -0.0067118214 -1.0836037382  0.3547966034
 C  0.0227142298  1.1439082828  0.3265996257
 C  0.0290317880  0.7034399967 -0.9511051850
 C -0.0233219574 -0.6912569198 -0.9679197507
 H -0.0576571602  2.1426610131  0.7106113081
 H  0.0266950718 -2.0915506578  0.7241585778
 H  0.0590858367  1.3182100749 -1.8311263942
 H -0.0861160481 -1.3210310361 -1.8434743896
 H  0.0261547041 -0.0959130138  2.1638573513
10
step 11
 N  0.0196635333  0.0141217279  1.1427724644
 C -0.0073677821 -1.0812606330  0.3555639848
 C  0.0248657528  1.1459406945  0.3280686356
 C  0.0317202449  0.7032974399 -0.9501581761
 C -0.0254906091 -0.6899055648 -0.9660530388
 H -0.0603925417  2.1407060950  0.7076781211
 H  0.0279468785 -2.0829395764  0.7249232307
 H  0.0634841665  1.3170986772 -1.8293001865
 H -0.0927860156 -1.3193966411 -1.8433665504
 H  0.0286568365 -0.0969559620  2.1672990062
10
step 12
 N  0.0213775957  0.0159923827  1.1450317914
 C -0.0080289768 -1.0792157664  0.3556704173
 C  0.0270065571  1.1478849236  0.3295634103
 C  0.0343542917  0.7034264291 -0.9493191335
 C -0.0276223279 -0.6888438557 -0.9638925011
 H -0.0624789456  2.1397513802  0.7057660043
 H  0.0288911933 -2.0753066847  0.7271719918
 H  0.0675239873  1.3167797096 -1.8277188651
 H -0.0989350659 -1.3176800584 -1.8424974588
 H  0.0311276959 -0.0959355269  2.1696681271
10
step 13
 N  0.0230775653  0.0179783902  1.1475042394
 C -0.0086972212 -1.0774274304  0.3551450505
 C  0.0291410572  1.1496970652  0.3310594878
 C  0.0369299748  0.7038401081 -0.9485640494
 C -0.0297153214 -0.6880749586 -0.9614695071
 H -0.0639146662  2.1402090732  0.7050416048
 H  0.0295244501 -2.0691830773  0.7310362380
 H  0.0711950088  1.3172980213 -1.8264699940
 H -0.1045342467 -1.3158451077 -1.8407723987
 H  0.0335654064 -0.0928597861  2.1709362938
10
step 14
 N  0.0247627868  0.0200769855  1.1501550691
 C -0.0093734109 -1.0758677075  0.3540406144
 C  0.0312725375  1.1513508952  0.3325379791
 C  0.0394433956  0.7045513391 -0.9478705522
 C -0.0317673680 -0.6875931536 -0.9588185883
 H -0.0646867904  2.1422911210  0.7055846684
 H  0.0298370809 -2.0648860300  0.7365419555
 H  0.0744888065  1.3186553371 -1.8255942754
 H -0.1095641783 -1.3139025653 -1.8381662767
 H  0.0359695923 -0.0877899473  2.1712638109
10
step 15
 N  0.0264324162  0.0222841097  1.1529331972
 C -0.0100572446 -1.0745273047  0.3524337052
 C  0.0334026213  1.1528413455  0.3339869191
 C  0.0418906225  0.7055725138 -0.9472191592
 C -0.0337756079 -0.6873835739 -0.9559767003
 H -0.0647653762  2.1459751560  0.7073767183
 H  0.0298107298 -2.0624724840  0.7435922504
 H  0.0773983126  1.3208081546 -1.8250804634
 H -0.1140158438 -1.3119118672 -1.8347275359
 H  0.0383413270 -0.0808354311  2.1709767201
10
step 16
 N  0.0280854210  0.0245942488  1.1557755251
 C -0.0107471597 -1.0734164543  0.3504235865
 C  0.0355311297  1.1541845908  0.3354013996
 C  0.0442676262  0.7069148253 -0.9465938673
 C -0.0357364486 -0.6874223359 -0.9529829738
 H -0.0641022180  2.1510083688  0.7103037909
 H  0.0294177361 -2.0617369826  0.7519650044
 H  0.0799177518  1.3236707772 -1.8248675492
 H -0.1178908281 -1.3099773579 -1.8305747150
 H  0.0406828435 -0.0721453702  2.1705208973
10
step 17
 N  0.0297205500  0.0270000121  1.1586128532
 C -0.0114404249 -1.0725618401  0.3481291523
 C  0.0376562982  1.1554147027  0.3367824411
 C  0.0465700673  0.7085874442 -0.9459820549
 C -0.0376453618 -0.6876773545 -0.9498785189
 H -0.0626343506  2.1569494425  0.7141727750
 H  0.0286230592 -2.0622533287  0.7613266141
 H  0.0820429449  1.3271230973 -1.8248536046
 H -0.1212004902 -1.3082398474 -1.8258869539
 H  0.0429967624 -0.0618970038  2.1703947688
10
step 18
 N  0.0313365953  0.0294921938  1.1613768286
 C -0.0121336401 -1.0720002607  0.3456840315
 C  0.0397754983  1.1565779513  0.3381351873
 C  0.0487936254  0.7105957993 -0.9453738041
 C -0.0394974935 -0.6881093828 -0.9467070190
 H -0.0602916252  2.1632341080  0.7187368776
 H  0.0273881689 -2.0634538497  0.7712644821
 H  0.0837720606  1.3310224726 -1.8249106855
 H -0.1239653916 -1.3068618982 -1.8208846126
 H  0.0452855510 -0.0502840971  2.1710692239
10
step 19
 N  0.0329324276  0.0320595452  1.1640071891
 C -0.0128231014 -1.0717709488  0.3432304224
 C  0.0418859396  1.1577257279  0.3394664611
 C  0.0509337735  0.7129405156 -0.9447608712
 C -0.0412876104 -0.6886739253 -0.9435146936
 H -0.0570055174  2.1692560698  0.7237263380
 H  0.0256757439 -2.0647204091  0.7813260297
 H  0.0851062563  1.3352174459 -1.8249018374
 H -0.1262126693 -1.3060109747 -1.8158074811
 H  0.0475501694 -0.0375054664  2.1729028201
10
step 20
 N  0.0345071171  0.0346889436  1.1664579418
 C -0.0135052506 -1.0719078483  0.3409122387
 C  0.0439854331  1.1589076214  0.3407824630
 C  0.0529857422  0.7156162468 -0.9441355270
 C -0.0430103218 -0.6893234448 -0.9403502636
 H -0.0527179851  2.1744445412  0.7288782165
 H  0.0234542912 -2.0654737396  0.7910617291
 H  0.0860503935  1.3395620036 -1.8246988791
 H -0.1279732817 -1.3058401887 -1.8108889358
 H  0.0497888828 -0.0237575183  2.1760707005
10
step 21
 N  0.0360600324  0.0373658923  1.1687012524
 C -0.0141770644 -1.0724330020  0.3388681468
 C  0.0460730190  1.1601654779  0.3420868643
 C  0.0549444986  0.7186107998 -0.9434894860
 C -0.0446603022 -0.6900098174 -0.9372645082
 H -0.0473885900  2.1783294208  0.7339619132
 H  0.0207017866 -2.0652476313  0.8000653797
 H  0.0866135998  1.3439285873 -1.8241983941
 H -0.1292791073 -1.3064693074 -1.8063300334
 H  0.0519963769 -0.0092316861  2.1805232728
10
step 22
 N  0.0375908887  0.0400752846  1.1707282013
 C -0.0148363442 -1.0733515667  0.3372249751
 C  0.0481493842  1.1615289207  0.3433794584
 C  0.0568047478  0.7219046540 -0.9428131067
 C -0.0462324758 -0.6906867933 -0.9343092273
 H -0.0409990678  2.1805891622  0.7387986068
 H  0.0174079127 -2.0637424306  0.8080078856
 H  0.0868095871  1.3482184783 -1.8233340930
 H -0.1301603545 -1.3079685247 -1.8022771270
 H  0.0541634587  0.0058836279  2.1859857574
10
step 23
 N  0.0390997374  0.0428022475  1.1725463420
 C -0.0154818941 -1.0746485588  0.3360918622
 C  0.0502170507  1.1630124774  0.3446554129
 C  0.0585609602  0.7254709280 -0.9420949938
 C -0.0477221311 -0.6913121953 -0.9315354894
 H -0.0335551458  2.1810802644  0.7432741504
 H  0.0135748012 -2.0608573447  0.8146626940
 H  0.0866566847  1.3523685930 -1.8220843165
 H -0.1306437211 -1.3103473897 -1.7988064873
 H  0.0562774888  0.0213986682  2.1919992415
10
step 24
 N  0.0405868978  0.0455328447  1.1741748093
 C -0.0161135860 -1.0762872675  0.3355554527
 C  0.0522803466  1.1646143075  0.3459051042
 C  0.0602074298  0.7292757979 -0.9413220849
 C -0.0491249495 -0.6918496191 -0.9289911780
 H -0.0250857681  2.1798491097  0.7473455729
 H  0.0092163814 -2.0567032117  0.8199221295
 H  0.0861775926  1.3563541458 -1.8204740316
 H -0.1307515988 -1.3135506246 -1.7959184601
 H  0.0583234862  0.0371182747  2.1979931074
10
step 25
 N  0.0420528528  0.0482544708  1.1756382140
 C -0.0167323218 -1.0782093127  0.3356764381
 C  0.0543451883  1.1663165081  0.3471145083
 C  0.0617383611  0.7332793455 -0.9404802502
 C -0.0504369510 -0.6922694770 -0.9267180111
 H -0.0156400527  2.1771269286  0.7510412998
 H  0.0043565157 -2.0515970896  0.8238039625
 H  0.0853989003  1.3601870367 -1.8185712114
 H -0.1305023964 -1.3174614733 -1.7935420584
 H  0.0602856795  0.0528404297  2.2033722847
10
step 26
 N  0.0434981304  0.0509558757  1.1769605821
 C -0.0173398983 -1.0803364609  0.3364877769
 C  0.0564187108  1.1680870161  0.3482661556
 C  0.0631479799  0.7374367850 -0.9395553819
 C -0.0516543820 -0.6925493396 -0.9247483725
 H -0.0052823898  2.1733079326  0.7544548473
 H -0.0009738446 -2.0460384306  0.8264470027
 H  0.0843504410  1.3639102001 -1.8164780067
 H -0.1299118158 -1.3219119743 -1.7915490190
 H  0.0621492000  0.0683583938  2.2076025464
10
step 27
 N  0.0449231939  0.0536268459  1.1781602803
 C -0.0179387959 -1.0825744088  0.3379949259
 C  0.0585087968  1.1698831509  0.3493406706
 C  0.0644306597  0.7416999744 -0.9385349032
 C -0.0527735808 -0.6926736111 -0.9231023915
 H  0.0059137216  2.1689102465  0.7577315203
 H -0.0067401312 -2.0406651654  0.8280940497
 H  0.0830645595  1.3675885184 -1.8143175542
 H -0.1289947137 -1.3266984596 -1.7897747059
 H  0.0639016403  0.0834661435  2.2102814455
10
step 28
 N  0.0463283547  0.0562576593  1.1792464855
 C -0.0185319278 -1.0848187327  0.3401782320
 C  0.0606235707  1.1716567599  0.3503188579
 C  0.0655810462  0.7460190876 -0.9374095524
 C -0.0537908562 -0.6926326526 -0.9217856960
 H  0.0178722221  2.1645200087  0.7610479013
 H -0.0129076779 -2.0361882347  0.8290609898
 H  0.0815753885  1.3712972492 -1.8122176983
 H -0.1277671146 -1.3315999074 -1.7880422395
 H  0.0655342833  0.0979659518  2.2111881574
10
step 29
 N  0.0477137333  0.0588384929  1.1802170812
 C -0.0191224012 -1.0869628159  0.3429978686
 C  0.0627709528  1.1733606050  0.3511845457
 C  0.0665942145  0.7503445350 -0.9361750577
 C -0.0547025002 -0.6924217072 -0.9207881735
 H  0.0305209915  2.1607193552  0.7645839054
 H -0.0194448527 -2.0333053250  0.8296920457
 H  0.0799180462  1.3751105314 -1.8102957148
 H -0.1262479591 -1.3363978197 -1.7861879642
 H  0.0670428298  0.1116769332  2.2103086119
10
step 30
 N  0.0490792130  0.0613588946  1.1810593486
 C -0.0197134383 -1.0889073910  0.3463986788
 C  0.0649583758  1.1749554488  0.3519267276
 C  0.0674656652  0.7546282272 -0.9348340989
 C -0.0555045740 -0.6920392500 -0.9200836542
 H  0.0437942710  2.1580144754  0.7684936145
 H -0.0263235450 -2.0326040536  0.8303084785
 H  0.0781285356  1.3790867846 -1.8086377382
 H -0.1244605349 -1.3408910575 -1.7840786181
 H  0.0684277935  0.1244419654  2.2078397415
10
step 31
 N  0.0504244812  0.0638074225  1.1817513195
 C -0.0203084115 -1.0905699160  0.3503171144
 C  0.0671927568  1.1764166424  0.3525423208
 C  0.0681914348  0.7588250253 -0.9333973123
 C -0.0561930564 -0.6914856505 -0.9196308416
 H  0.0576338341  2.1567617290  0.7728741859
 H -0.0335182104 -2.0344651354  0.8311556986
 H  0.0762432435  1.3832597374 -1.8072878477
 H -0.1224330447 -1.3449105574 -1.7816279573
 H  0.0696942161  0.1361337105  2.2041681408
10
step 32
 N  0.0517490952  0.0661715852  1.1822650971
 C -0.0209110733 -1.0918921446  0.3546870040
 C  0.0694807454  1.1777389279  0.3530379971
 C  0.0687681344  0.7628936834 -0.9318837319
 C -0.0567639571 -0.6907619233 -0.9193750540
 H  0.0719860886  2.1571147033  0.7777421102
 H -0.0410022543 -2.0389885853  0.8323630624
 H  0.0742987683  1.3876323015 -1.8062411944
 H -0.1201986201 -1.3483290352 -1.7788058717
 H  0.0708508792  0.1466572840  2.1998255799
10
step 33
 N  0.0530525865  0.0684381409  1.1825716719
 C -0.0215258974 -1.0928441304  0.3594434404
 C  0.0718291859  1.1789383878  0.3534307823
 C  0.0691929692  0.7667973172 -0.9303203771
 C -0.0572134656 -0.6898687381 -0.9192506284
 H  0.0867963017  2.1590023449  0.7830218965
 H -0.0487428533 -2.0459613558  0.8339266130
 H  0.0723318143  1.3921749623 -1.8054438355
 H -0.1177947509 -1.3510659084 -1.7756407705
 H  0.0719090306  0.1559491114  2.1954230141
10
step 34
 N  0.0543345969  0.0705937687  1.1826468118
 C -0.0221584003 -1.0934237440  0.3645242678
 C  0.0742456448  1.1800510353  0.3537471785
 C  0.0694637518  0.7705034403 -0.9287409348
 C -0.0575381272 -0.6888057983 -0.9191837847
 H  0.1020018913  2.1621433902  0.7885502578
 H -0.0566959758 -2.0548759793  0.8357192876
 H  0.0703790594  1.3968288544 -1.8047995113
 H -0.1152622591 -1.3530873100 -1.7722154603
 H  0.0728807613  0.1639718549  2.1915680639
10
step 35
 N  0.0555950309  0.0726260376  1.1824772493
 C -0.0228153029 -1.0936520153  0.3698694346
 C  0.0767388229  1.1811283473  0.3540208939
 C  0.0695789221  0.7739836626 -0.9271836229
 C -0.0577350317 -0.6875716439 -0.9190957909
 H  0.1175270502  2.1660934066  0.7940950309
 H -0.0648034031 -2.0649956357  0.8375247130
 H  0.0684769119  1.4015128711 -1.8041823763
 H -0.1126439653 -1.3544013306 -1.7686570782
 H  0.0737772921  0.1707062223  2.1887761596
10
step 36
 N  0.0568341966  0.0745244984  1.1820660346
 C -0.0235044453 -1.0935656631  0.3754190745
 C  0.0793187080  1.1822307122  0.3542895760
 C  0.0695375824  0.7772131900 -0.9256884359
 C -0.0578020008 -0.6861638904 -0.9189063055
 H  0.1332804755  2.1703133469  0.7993845301
 H -0.0729928382 -2.0754491046  0.8390842891
 H  0.0666611099  1.4061335442 -1.8034537884
 H -0.1099832100 -1.3550489398 -1.7651220030
 H  0.0746075201  0.1761415691  2.1873906308
10
step 37
 N  0.0580529044  0.0762816646  1.1814358197
 C -0.0242344551 -1.0932085865  0.3811113338
 C  0.0819964090  1.1834200466  0.3545911088
 C  0.0693395526  0.7801702728 -0.9242940548
 C -0.0577377608 -0.6845798665 -0.9185367704
 H  0.1491569020  2.1742455686  0.8041412926
 H -0.0811811146 -2.0853346093  0.8401456844
 H  0.0649661722  1.4105961165 -1.8024807660
 H -0.1073223942 -1.3550914522 -1.7617771060
 H  0.0753771804  0.1802679423  2.1875288299
10
step 38
 N  0.0592524682  0.0778934944  1.1806289745
 C -0.0250141859 -1.0926237060  0.3868809125
 C  0.0847836392  1.1847528417  0.3549601532
 C  0.0689855342  0.7828356416 -0.9230347127
 C -0.0575421253 -0.6828175595 -0.9179137125
 H  0.1650415782  2.1773843982  0.8081141168
 H -0.0892793784 -2.0938140096  0.8405034346
 H  0.0634248672  1.4148156669 -1.8011544637
 H -0.1047018268 -1.3545960222 -1.7587797135
 H  0.0760889190  0.1830716993  2.1890675790
10
step 39
 N  0.0604347351  0.0793599559  1.1797049873
 C -0.0258521903 -1.0918465246  0.3926579290
 C  0.0876921237  1.1862738207  0.3554248664
 C  0.0684770662  0.7851923968 -0.9219374381
 C -0.0572160590 -0.6808767100 -0.9169717781
 H  0.1808183537  2.1793355535  0.8111060627
 H -0.0972002414 -2.1001912150  0.8400286225
 H  0.0620672756  1.4187252151 -1.7994036127
 H -0.1021585182 -1.3536206288 -1.7562565975
 H  0.0767429921  0.1845372180  2.1916703982
10
step 40
 N  0.0616019699  0.0806846264  1.1787348261
 C -0.0267560804 -1.0909001417  0.3983680622
 C  0.0907327672  1.1880115685  0.3560045461
 C  0.0678166856  0.7872258447 -0.9210197642
 C -0.0567617749 -0.6787598623 -0.9156562418
 H  0.1963779947  2.1798578558  0.8129944157
 H -0.1048644537 -2.1039660471  0.8386855986
 H  0.0609203332  1.4222819929 -1.7972050885
 H -0.0997257180 -1.3522010126 -1.7542870422
 H  0.0773387639  0.1846524269  2.1948518282
10
step 41
 N  0.0627567406  0.0818741886  1.1777939474
 C -0.0277319657 -1.0897919937  0.4039333201
 C  0.0939148350  1.1899755776  0.3567081252
 C  0.0670080391  0.7889236846 -0.9202882256
 C -0.0561827735 -0.6764731973 -0.9139248949
 H  0.2116267578  2.1788884396  0.8137430991
 H -0.1122072460 -2.1048688842  0.8365386797
 H  0.0600073664  1.4254701231 -1.7945887017
 H -0.0974327792 -1.3503417115 -1.7528910677
 H  0.0778763464  0.1834171461  2.1980613621
10
step 42
 N  0.0639018020  0.0829378093  1.1769551319
 C -0.0287839735 -1.0885121190  0.4092733424
 C  0.0972451947  1.1921549349  0.3575335803
 C  0.0660559994  0.7902764383 -0.9197377552
 C -0.0554838514 -0.6740269652 -0.9117491824
 H  0.2264940273  2.1765516840  0.8134073816
 H -0.1191837369 -2.1028777711  0.8337508686
 H  0.0593478156  1.4282995987 -1.7916360686
 H -0.0953054210 -1.3480127099 -1.7520247514
 H  0.0783580951  0.1808515913  2.2007706990
10
step 43
 N  0.0650399992  0.0838865592  1.1762821673
 C -0.0299138873 -1.0870329047  0.4143071550
 C  0.1007277033  1.1945186893  0.3584683118
 C  0.0649667863  0.7912781448 -0.9193520202
 C -0.0546710901 -0.6714354707 -0.9091145630
 H  0.2409379791  2.1731518459  0.8121306404
 H -0.1257729655 -2.0982192380  0.8305759580
 H  0.0589571182  1.4308016480 -1.7884737759
 H -0.0933662889 -1.3451524412 -1.7515834558
 H  0.0787897269  0.1770030062  2.2025506188
10
step 44
 N  0.0661742116  0.0847330388  1.1758250745
 C -0.0311209605 -1.0853105455  0.4189552788
 C  0.1043628560  1.1970180302  0.3594904587
 C  0.0637480689  0.7919272957 -0.9191046379
 C -0.0537518205 -0.6687166162 -0.9060201586
 H  0.2549481715  2.1691483945  0.8101327020
 H -0.1319800198 -2.0913518199  0.8273443907
 H  0.0588467145  1.4330207165 -1.7852611985
 H -0.0916356769 -1.3416766396 -1.7514122389
 H  0.0791809473  0.1719492197  2.2031293942
10
step 45
 N  0.0673073373  0.0854912065  1.1756171822
 C -0.0324019662 -1.0832885371  0.4231423154
 C  0.1081477893  1.1995904232  0.3605711587
 C  0.0624090541  0.7922278669 -0.9189611733
 C -0.0527345791 -0.6658910128 -0.9024778898
 H  0.2685440187  2.1651127736  0.8076892701
 H -0.1378355352 -2.0829286105  0.8244421629
 H  0.0590241553  1.4350037440 -1.7821739794
 H -0.0901322905 -1.3374916452 -1.7513218629
 H  0.0795455839  0.1657987763  2.2024289159
10
step 46
 N  0.0684423130  0.0861763835  1.1756741288
 C -0.0337515592 -1.0809035333  0.4268001678
 C  0.1120767337  1.2021656778  0.3616777106
 C  0.0609605647  0.7921903621 -0.9188817046
 C -0.0516290681 -0.6629808087 -0.8985112990
 H  0.2817681876  2.1616664517  0.8051024496
 H -0.1433916423 -2.0737345202  0.8222815705
 H  0.0594932198  1.4367879682 -1.7793850489
 H -0.0888739460 -1.3325102659 -1.7511083632
 H  0.0799012810  0.1586878512  2.2005770581
10
step 47
 N  0.0695821651  0.0868054215  1.1759948317
 C -0.0351630210 -1.0780936569  0.4298718981
 C  0.1161419622  1.2046735799  0.3627773885
 C  0.0594150938  0.7918327725 -0.9188236391
 C -0.0504461113 -0.6600084249 -0.8941542430
 H  0.2946745601  2.1594036609  0.8026641332
 H -0.1487136341 -2.0645968602  0.8212635298
 H  0.0602539564  1.4383888468 -1.7770455073
 H -0.0878781391 -1.3266680641 -1.7505738525
 H  0.0802688302  0.1507744400  2.1978955590
10
step 48
 N  0.0707300822  0.0873969820  1.1765644241
 C -0.0366293705 -1.0748086949  0.4323160466
 C  0.1203351442  1.2070522206  0.3638414437
 C  0.0577868332  0.7911812914 -0.9187444417
 C -0.0491976074 -0.6569953391 -0.8894496275
 H  0.3073117478  2.1588077622  0.8006167066
 H -0.1538674650 -2.0562750111  0.8217335656
 H  0.0613025903  1.4397899575 -1.7752679497
 H -0.0871624667 -1.3199381256 -1.7495463766
 H  0.0806712219  0.1422305753  2.1948627382
10
step 49
 N  0.0718894918  0.0879718317  1.1773590365
 C -0.0381446925 -1.0710207042  0.4341109765
 C  0.1246488550  1.2092556668  0.3648486511
 C  0.0560916844  0.7902706192 -0.9186039546
 C -0.0478964771 -0.6539610228 -0.8844483121
 H  0.3197049467  2.1601755641  0.7991180016
 H -0.1589046872 -2.0493450445  0.8239368485
 H  0.0626312863  1.4409367276 -1.7741146905
 H -0.0867449013 -1.3123427898 -1.7478970642
 H  0.0811325208  0.1332336692  2.1920515527
10
step 50
 N  0.0730641313  0.0885529580  1.1783520854
 C -0.0397054936 -1.0667326945  0.4352584583
 C  0.1290780048  1.2112593067  0.3657878011
 C  0.0543471089  0.7891439661 -0.9183661035
 C -0.0465565232 -0.6509224057 -0.8792079521
 H  0.3318403554  2.1635669549  0.7982181252
 H -0.1638478326 -2.0441027174  0.8279799625
 H  0.0642278853  1.4417357572 -1.7735932737
 H -0.0866439285 -1.3039616116 -1.7455541127
 H  0.0816765905  0.1239583869  2.1900454844
10
step 51
 N  0.0742580799  0.0891656823  1.1795210805
 C -0.0413113775 -1.0619835010  0.4357858813
 C  0.1336203200  1.2130621999  0.3666581828
 C  0.0525723450  0.7878516742 -0.9179997072
 C -0.0451924967 -0.6478927026 -0.8737929284
 H  0.3436562105  2.1687893574  0.7978545846
 H -0.1686810809 -2.0405155232  0.8338112128
 H  0.0660754661  1.4420586749 -1.7736571062
 H -0.0868784943 -1.2949329015 -1.7425082325
 H  0.0823262120  0.1145708439  2.1893493761
10
step 52
 N  0.0754757479  0.0898371317  1.1808538639
 C -0.0429653220 -1.0568466860  0.4357465011
 C  0.1382764405  1.2146851959  0.3674687765
 C  0.0507881754  0.7864501165 -0.9174785899
 C -0.0438199269 -0.6448815600 -0.8682735094
 H  0.3550436603  2.1754253232  0.7978656761
 H -0.1733481287 -2.0382306209  0.8412206282
 H  0.0681522608  1.4417532390 -1.7742157995
 H -0.0874678632 -1.2854520365 -1.7388164180
 H  0.0831021770  0.1052258616  2.1902997729
10
step 53
 N  0.0767218142  0.0905954216  1.1823527937
 C -0.0446731273 -1.0514240693  0.4352175103
 C  0.1430491273  1.2161658987  0.3682359549
 C  0.0490167621  0.7849998564 -0.9167810388
 C -0.0424549984 -0.6418952943 -0.8627253026
 H  0.3658569825  2.1828939088  0.7980194842
 H -0.1777587708 -2.0366420270  0.8498633124
 H  0.0704318394  1.4406583463 -1.7751501006
 H -0.0884312637 -1.2757637377 -1.7345981482
 H  0.0840228282  0.0960680006  2.1930019230
10
step 54
 N  0.0780011183  0.0914685554  1.1840357433
 C -0.0464422706 -1.0458353770  0.4342962451
 C  0.1479419133  1.2175516214  0.3689804210
 C  0.0472814267  0.7835634654 -0.9158888480
 C -0.0411144192 -0.6389375203 -0.8572286380
 H  0.3759306544  2.1905321489  0.7980513002
 H -0.1818021335 -2.0349969524  0.8593000101
 H  0.0728836774  1.4386214307 -1.7763297704
 H -0.0897872530 -1.2661490176 -1.7300247784
 H  0.0851039678  0.0872353160  2.1973080578
10
step 55
 N  0.0793185175  0.0924832281  1.1859335388
 C -0.0482804787 -1.0402062818  0.4330951099
 C  0.1529575442  1.2188917608  0.3697240563
 C  0.0456063574  0.7822031962 -0.9147862042
 C -0.0398152841 -0.6360101674 -0.8518677802
 H  0.3850995449  2.1976806615  0.7977019265
 H -0.1853631272 -2.0325152850  0.8690463210
 H  0.0754741599  1.4355160430 -1.7776318749
 H -0.0915527755 -1.2569074863 -1.7253024871
 H  0.0863590794  0.0788637918  2.2028430798
10
step 56
 N  0.0806787215  0.0936637455  1.1880844055
 C -0.0501943104 -1.0346568834  0.4317358107
 C  0.1580965050  1.2202307649  0.3704871950
 C  0.0440162582  0.7809787146 -0.9134586638
 C -0.0385749500 -0.6331148363 -0.8467298764
 H  0.3932185408  2.2037607158  0.7967511366
 H -0.1883386191 -2.0284997899  0.8786223120
 H  0.0781679472  1.4312575443 -1.7789571813
 H -0.0937418907 -1.2483363958 -1.7206500710
 H  0.0877997638  0.0710903572  2.2090709855
10
step 57
 N  0.0820861205  0.0950312132  1.1905267079
 C -0.0521879430 -1.0292919350  0.4303433327
 C  0.1633558162  1.2216024128  0.3712866007
 C  0.0425359691  0.7799450630 -0.9118924362
 C -0.0374109443 -0.6302543703 -0.8419035288
 H  0.4001790154  2.2083355302  0.7950432606
 H -0.1906509392 -2.0224240165  0.8875968996
 H  0.0809295442  1.4258152268 -1.7802427604
 H -0.0963641856 -1.2407084743 -1.7162739524
 H  0.0894362867  0.0640531749  2.2153856096
10
step 58
 N  0.0835446175  0.0966030584  1.1932914803
 C -0.0542622457 -1.0241933456  0.4290399132
 C  0.1687281875  1.2230257277  0.3721342147
 C  0.0411900842  0.7791509769 -0.9100741423
 C -0.0363409144 -0.6274344489 -0.8374768704
 H  0.4059208308  2.2111533086  0.7925041120
 H -0.1922576990 -2.0139941519  0.8956244186
 H  0.0837248736  1.4192196645 -1.7814693907
 H -0.0994229725 -1.2342510768 -1.7123437144
 H  0.0912781619  0.0578890112  2.2212063937
10
step 59
 N  0.0850574743  0.0983928567  1.1963959895
 C -0.0564141512 -1.0194149999  0.4279391668
 C  0.1742015595  1.2245026094  0.3730366341
 C  0.0400025832  0.7786376335 -0.9079911600
 C -0.0353826093 -0.6246649684 -0.8335350260
 H  0.4104394335  2.2121720882  0.7891496332
 H -0.1931578428 -2.0031865250  0.9024728368
 H  0.0865226448  1.4115646104 -1.7826628666
 H -0.1029134828 -1.2291292799 -1.7089719477
 H  0.0933347307  0.0527284027  2.2260632194
10
step 60
 N  0.0866271797  0.1004103921  1.1998391170
 C -0.0586363213 -1.0149798013  0.4271405592
 C  0.1797590571  1.2260172226  0.3739952549
 C  0.0389964843  0.7784378648 -0.9056326042
 C -0.0345538676 -0.6219609806 -0.8301569150
 H  0.4137879210  2.2115667874  0.7850867581
 H -0.1933941641 -1.9902635502  0.9080435663
 H  0.0892953329  1.4030032492 -1.7838888112
 H -0.1068213607 -1.2254351378 -1.7062018590
 H  0.0956157195  0.0486897588  2.2296604397
10
step 61
 N  0.0882553473  0.1026618579  1.2035989466
 C -0.0609171243 -1.0108789769  0.4267245699
 C  0.1853794032  1.2275372413  0.3750070468
 C  0.0381935211  0.7785758294 -0.9029909170
 C -0.0338725780 -0.6193430073 -0.8274114949
 H  0.4160738704  2.2097176920  0.7805064856
 H -0.1930523380 -1.9757687463  0.9123819158
 H  0.0920196298  1.3937391137 -1.7852411232
 H -0.1111218040 -1.2231844295 -1.7040048555
 H  0.0981317687  0.0458735474  2.2319155637
10
step 62
 N  0.0899426525  0.1051501133  1.2076327058
 C -0.0632409798 -1.0070739513  0.4267490864
 C  0.1910378507  1.2290171310  0.3760659648
 C  0.0376138477  0.7790670958 -0.9000639549
 C -0.0333565795 -0.6168366327 -0.8253537328
 H  0.4174505674  2.2071782255  0.7756686047
 H -0.1922561152 -1.9604979030  0.9156754595
 H  0.0946762989  1.3840125434 -1.7868248641
 H -0.1157796462 -1.2223210560 -1.7022884661
 H  0.1008949006  0.0443575785  2.2329709374
10
step 63
 N  0.0916888166  0.1078749129  1.2118791112
 C -0.0655891378 -1.0035013012  0.4272477390
 C  0.1967076553  1.2304036262  0.3771650030
 C  0.0372757822  0.7799190431 -0.8968573692
 C -0.0330234829 -0.6144713725 -0.8240207536
 H  0.4181024312  2.2046196436  0.7708774930
 H -0.1911580393 -1.9454405939  0.9182359317
 H  0.0972494600  1.3740842252 -1.7887352562
 H -0.1207505218 -1.2227280915 -1.7009130255
 H  0.1039188483  0.0441942489  2.2331775283
10
step 64
 N  0.0934926468  0.1108330374  1.2162630828
 C -0.0679409336 -1.0000812303  0.4282308558
 C  0.2023620189  1.2316433094  0.3782988241
 C  0.0371955966  0.7811314463 -0.8933869748
 C -0.0328904061 -0.6122789229 -0.8234286716
 H  0.4182252445  2.2027526353  0.7664494302
 H -0.1899252682 -1.9316865256  0.9204601379
 H  0.0997254583  1.3642179764 -1.7910354512
 H -0.1259830626 -1.2242436219 -1.6997141017
 H  0.1072190939  0.0454104318  2.2330501625
10
step 65