10
step 0
 N -0.0000000000 -0.0000000000  1.1269745215
 C -0.0000000000 -1.1282756354  0.3173848388
 C  0.0000000000  1.1282756354  0.3173848388
 C -0.0000000000  0.7159366566 -0.9690644858
 C  0.0000000000 -0.7159366566 -0.9690644858
 H  0.0000000000  2.1181981059  0.7485917047
 H -0.0000000000 -2.1181981059  0.7485917047
 H -0.0000000000  1.3509263182 -1.8392189784
 H  0.0000000000 -1.3509263182 -1.8392189784
 H -0.0000000000  0.0000000000  2.1473393191
10
step 1
 N  0.0018389986  0.0009970016  1.1282976402
 C -0.0006961329 -1.1224372500  0.3225937588
 C  0.0023633883  1.1292927175  0.3178734688
 C  0.0030223438  0.7141402566 -0.9667047215
 C -0.0024280577 -0.7129723349 -0.9700005680
 H -0.0073249669  2.1262515371  0.7457918525
 H  0.0034003367 -2.1223044033  0.7459336303
 H  0.0066767022  1.3471314708 -1.8397591885
 H -0.0095395110 -1.3464116593 -1.8386421271
 H  0.0026868990 -0.0136873361  2.1443162537
10
step 2
 N  0.0036702831  0.0020050542  1.1295973796
 C -0.0013880090 -1.1167227700  0.3276949173
 C  0.0047141634  1.1303643249  0.3184014799
 C  0.0060290432  0.7123851934 -0.9643967394
 C -0.0048436950 -0.7100439701 -0.9708497622
 H -0.0145334947  2.1336854326  0.7428326987
 H  0.0067452661 -2.1256975340  0.7431933262
 H  0.0132859618  1.3433424292 -1.8401546561
 H -0.0189934353 -1.3420713406 -1.8382259624
 H  0.0053605487 -0.0270626951  2.1419209563
10
step 3
 N  0.0054928528  0.0030406010  1.1308641188
 C -0.0020742311 -1.1112288666  0.3325993824
 C  0.0070482658  1.1315421168  0.3190052847
 C  0.0090157959  0.7107057818 -0.9621809684
 C -0.0072432990 -0.7071776504 -0.9715355775
 H -0.0215307168  2.1399847983  0.7395785900
 H  0.0099901145 -2.1277651137  0.7403177329
 H  0.0197852202  1.3395633469 -1.8402755054
 H -0.0283142648 -1.3380432686 -1.8380957636
 H  0.0080191841 -0.0398808536  2.1406664130
10
step 4
 N  0.0073057362  0.0041210376  1.1321013702
 C -0.0027538298 -1.1060400235  0.3372197491
 C  0.0093618677  1.1328655608  0.3197141983
 C  0.0119785397  0.7091344745 -0.9600922597
 C -0.0096232864 -0.7044005685 -0.9719917514
 H -0.0282209035  2.1447668149  0.7359501581
 H  0.0130903836 -2.1280426092  0.7373099454
 H  0.0261331971  1.3358168478 -1.8400248788
 H -0.0374572073 -1.3344280218 -1.8383270930
 H  0.0106622945 -0.0519115665  2.1408785864
10
step 5
 N  0.0091080539  0.0052635697  1.1333283146
 C -0.0034263812 -1.1012235720  0.3414720338
 C  0.0116517801  1.1343580548  0.3205484214
 C  0.0149134055  0.7077011206 -0.9581577763
 C -0.0119802594 -0.7017413109 -0.9721649353
 H -0.0345126444  2.1478190334  0.7319371169
 H  0.0160039759 -2.1262559873  0.7342364114
 H  0.0322908070  1.3321492944 -1.8393501514
 H -0.0463790137 -1.3312778270 -1.8389307039
 H  0.0132899270 -0.0629355174  2.1426462667
10
step 6
 N  0.0108990656  0.0064840253  1.1345790525
 C -0.0040920953 -1.0968262697  0.3452779343
 C  0.0139158406  1.1360247017  0.3215179295
 C  0.0178166471  0.7064325352 -0.9563955845
 C -0.0143111513 -0.6992297130 -0.9720162316
 H -0.0403240694  2.1491194765  0.7276031755
 H  0.0186933701 -2.1223454131  0.7312267370
 H  0.0382220148  1.3286326016 -1.8382488620
 H -0.0550366626 -1.3285924014 -1.8398468249
 H  0.0159019451 -0.0727409231  2.1458149020
10
step 7
 N  0.0126781894  0.0077958984  1.1358986027
 C -0.0047518571 -1.0928724878  0.3485672453
 C  0.0161532254  1.1378517547  0.3226222514
 C  0.0206845666  0.7053523779 -0.9548140393
 C -0.0166133245 -0.6968961964 -0.9715215138
 H -0.0455873479  2.1488390726  0.7230837153
 H  0.0211274453 -2.1164706953  0.7284676458
 H  0.0438945290  1.3253623208 -1.8367687342
 H -0.0633863548 -1.3263223515 -1.8409497578
 H  0.0184974534 -0.0811236415  2.1500252833
10
step 8
 N  0.0144449887  0.0092097917  1.1373365502
 C -0.0054072075 -1.0893641373  0.3512803080
 C  0.0183646381  1.1398077804  0.3238511200
 C  0.0235134510  0.7044813170 -0.9534119870
 C -0.0188846015 -0.6947706164 -0.9706706530
 H -0.0502517888  2.1473263714  0.7185766165
 H  0.0232826901 -2.1089983714  0.7261919808
 H  0.0492802536  1.3224520993 -1.8350017741
 H -0.0713831970 -1.3243794850 -1.8420619583
 H  0.0210745338 -0.0878920491  2.1547860243
10
step 9
 N  0.0161991331  0.0107332805  1.1389397557
 C -0.0060602531 -1.0862825552  0.3533704404
 C  0.0205523293  1.1418466250  0.3251859671
 C  0.0262995321  0.7038374242 -0.9521797441
 C -0.0211232143 -0.6928807386 -0.9694659166
 H -0.0542848983  2.1450738936  0.7143263586
 H  0.0251435405 -2.1004691953  0.7246629032
 H  0.0543554448  1.3200249533 -1.8330729735
 H -0.0789817658 -1.3226522100 -1.8429751777
 H  0.0236303275 -0.0928759402  2.1595618980
10
step 10
 N  0.0179404009  0.0123710628  1.1407456959
 C -0.0067135443 -1.0835927071  0.3548059873
 C  0.0227199498  1.1439122918  0.3266019414
 C  0.0290391109  0.7034368999 -0.9511006892
 C -0.0233278288 -0.6912507316 -0.9679195940
 H -0.0576714031  2.1426667121  0.7106017078
 H  0.0267017181 -2.0915436685  0.7241527335
 H  0.0591007061  1.3182018806 -1.8311242472
 H -0.0861378071 -1.3210233624 -1.8434752721
 H  0.0261613883 -0.0959373242  2.1638605937
10
step 11
 N  0.0196684796  0.0141254146  1.1427766822
 C -0.0073696868 -1.0812490836  0.3555735597
 C  0.0248720231  1.1459452444  0.3280713245
 C  0.0317282512  0.7032943251 -0.9501534491
 C -0.0254970308 -0.6898990459 -0.9660524550
 H -0.0604074507  2.1407111012  0.7076677093
 H  0.0279538482 -2.0829303017  0.7249176006
 H  0.0635001533  1.3170902153 -1.8292975568
 H -0.0928094605 -1.3193885050 -1.8433673607
 H  0.0286641832 -0.0969804964  2.1673029131
10
step 12
 N  0.0213829733  0.0159965676  1.1450366335
 C -0.0080310695 -1.0792037779  0.3556800182
 C  0.0270133804  1.1478899942  0.3295664806
 C  0.0343629695  0.7034233679 -0.9493142031
 C -0.0276292932 -0.6888370808 -0.9638914199
 H -0.0624943932  2.1397559363  0.7057550131
 H  0.0288984286 -2.0752953944  0.7271669352
 H  0.0675410078  1.3167711839 -1.8277158179
 H -0.0989600567 -1.3176714378 -1.8424980122
 H  0.0311357021 -0.0959597334  2.1696724812
10
step 13
 N  0.0230833706  0.0179831012  1.1475097570
 C -0.0086995094 -1.0774150660  0.3551545192
 C  0.0291484385  1.1497026229  0.3310629408
 C  0.0369393112  0.7038371748 -0.9485589370
 C -0.0297228232 -0.6880680033 -0.9614678637
 H -0.0639305363  2.1402135515  0.7050303125
 H  0.0295318977 -2.0691702067  0.7310321531
 H  0.0712129781  1.3172896481 -1.8264666189
 H -0.1045606347 -1.3158359750 -1.8407724923
 H  0.0335740689 -0.0928831182  2.1709408951
10
step 14
 N  0.0247690157  0.0200822487  1.1501613019
 C -0.0093759021 -1.0758550184  0.3540498049
 C  0.0312804833  1.1513568974  0.3325418110
 C  0.0394533770  0.7045486108 -0.9478652733
 C -0.0317753992 -0.6875860917 -0.9588163241
 H -0.0647029713  2.1422959702  0.7055733788
 H  0.0298446877 -2.0648721186  0.7365392547
 H  0.0745076378  1.3186473338 -1.8255906741
 H -0.1095918096 -1.3138928984 -1.8381657057
 H  0.0359789084 -0.0878118816  2.1712685149
10
step 15
 N  0.0264390644  0.0222899491  1.1529401698
 C -0.0100599461 -1.0745143356  0.3524424901
 C  0.0334111385  1.1528477463  0.3339911228
 C  0.0419012345  0.7055700695 -0.9472137242
 C -0.0337841605 -0.6873764751 -0.9559737635
 H -0.0647817498  2.1459808355  0.7073657367
 H  0.0298184375 -2.0624580943  0.7435913279
 H  0.0774179172  1.3208007284 -1.8250767352
 H -0.1140445633 -1.3119016610 -1.8347261107
 H  0.0383512947 -0.0808554829  2.1709814701
10
step 16
 N  0.0280924836  0.0246006862  1.1557832445
 C -0.0107500778 -1.0734032503  0.3504318628
 C  0.0355402247  1.1541913475  0.3354059660
 C  0.0442788535  0.7069127460 -0.9465882827
 C -0.0357455139 -0.6874152634 -0.9529793198
 H -0.0641186480  2.1510152805  0.7102934000
 H  0.0294254748 -2.0617226160  0.7519662002
 H  0.0799380389  1.3236641132 -1.8248637776
 H -0.1179204835 -1.3099666337 -1.8305722765
 H  0.0406934628 -0.0721631053  2.1705257452
10
step 17
 N  0.0297280213  0.0270070669  1.1586213083
 C -0.0114435639 -1.0725484521  0.3481368471
 C  0.0376659758  1.1554217810  0.3367873610
 C  0.0465818937  0.7085858118 -0.9459763239
 C -0.0376549296 -0.6876703628 -0.9498741117
 H -0.0626506726  2.1569578761  0.7141632154
 H  0.0286307418 -2.0622393552  0.7613301813
 H  0.0820638210  1.3271173496 -1.8248498455
 H -0.1212309362 -1.3082286614 -1.8258833871
 H  0.0430080345 -0.0619120450  2.1703998801
10
step 18
 N  0.0313444693  0.0294998825  1.1613859907
 C -0.0121370021 -1.0719867494  0.3456911061
 C  0.0397857609  1.1565853285  0.3381404522
 C  0.0488060339  0.7105946956 -0.9453679274
 C -0.0395075519 -0.6881025156 -0.9467018322
 H -0.0603076407  2.1632442059  0.7187283344
 H  0.0273956882 -2.0634404668  0.7712705627
 H  0.0837934297  1.3310177581 -1.8249069609
 H -0.1239964931 -1.3068503455 -1.8208798555
 H  0.0452974789 -0.0502961260  2.1710748630
10
step 19
 N  0.0329406975  0.0320678808  1.1640170153
 C -0.0128266860 -1.0717573853  0.3432368752
 C  0.0418967872  1.1577333945  0.3394720636
 C  0.0509467458  0.7129400213 -0.9447548476
 C -0.0412981459 -0.6886672142 -0.9435087118
 H -0.0570209925  2.1692678163  0.7237189361
 H  0.0256829724 -2.0647076298  0.7813346426
 H  0.0851280207  1.3352138418 -1.8248981324
 H -0.1262443032 -1.3059991898 -1.8158015285
 H  0.0475627564 -0.0375142200  2.1729093138
10
step 20
 N  0.0345157758  0.0346979353  1.1664683792
 C -0.0135090547 -1.0718943134  0.3409181058
 C  0.0439968634  1.1589155806  0.3407883966
 C  0.0529992590  0.7156164397 -0.9441293532
 C -0.0430213191 -0.6893169081 -0.9403434841
 H -0.0527326540  2.1744577716  0.7288720219
 H  0.0234610830 -2.0654614088  0.7910727706
 H  0.0860724543  1.3395595487 -1.8246951440
 H -0.1280053380 -1.3058283420 -1.8108818364
 H  0.0498021311 -0.0237627831  2.1760783846
10
step 21
 N  0.0360690724  0.0373755454  1.1687122434
 C -0.0141810828 -1.0724195830  0.3388735012
 C  0.0460850277  1.1601737437  0.3420931231
 C  0.0549585393  0.7186117532 -0.9434831569
 C -0.0446717442 -0.6900034599 -0.9372569420
 H -0.0474021621  2.1783438475  0.7339569398
 H  0.0207079818 -2.0652354604  0.8000786349
 H  0.0866358586  1.3439272866 -1.8241945514
 H -0.1293114883 -1.3064575958 -1.8063218816
 H  0.0520102855 -0.0092332925  2.1805324310
10
step 22
 N  0.0376003028  0.0400856003  1.1707396888
 C -0.0148405698 -1.0733383537  0.3372299232
 C  0.0481619660  1.1615375148  0.3433860360
 C  0.0568192901  0.7219064353 -0.9428066149
 C -0.0462443438 -0.6906806066 -0.9343009002
 H -0.0410112374  2.1806044090  0.7387948264
 H  0.0174133429 -2.0637300433  0.8080230491
 H  0.0868319472  1.3482183098 -1.8233300464
 H -0.1301929728 -1.3079571598 -1.8022680478
 H  0.0541780211  0.0058858093  2.1859965656
10
step 23
 N  0.0391095181  0.0428132234  1.1725582732
 C -0.0154863182 -1.0746356403  0.3360965397
 C  0.0502302000  1.1630214260  0.3446623022
 C  0.0585759803  0.7254735965 -0.9420883290
 C -0.0477344050 -0.6913061594 -0.9315264423
 H -0.0335656019  2.1810959072  0.7432715050
 H  0.0135792953 -2.0608443290  0.8146793969
 H  0.0866790529  1.3523695167 -1.8220799622
 H -0.1306764972 -1.3103365823 -1.7987966186
 H  0.0562926912  0.0214047254  2.1920117299
10
step 24
 N  0.0405970382  0.0455444756  1.1741871382
 C -0.0161181993 -1.0762747247  0.3355600179
 C  0.0522940581  1.1646236376  0.3459122960
 C  0.0602229022  0.7292794041 -0.9413152334
 C -0.0491376078 -0.6918437034 -0.9289814658
 H -0.0250942050  2.1798647191  0.7473439879
 H  0.0092197712 -2.0566891729  0.8199399719
 H  0.0861998804  1.3563561135 -1.8204692708
 H -0.1307844578 -1.3135405691 -1.7959079336
 H  0.0583393064  0.0371282515  2.1980071470
10
step 25
 N  0.0420633461  0.0482667496  1.1756509013
 C -0.0167371145 -1.0781972149  0.3356810646
 C  0.0543594578  1.1663262436  0.3471219910
 C  0.0617542583  0.7332839294 -0.9404731950
 C -0.0504499713 -0.6922636428 -0.9267077011
 H -0.0156461788  2.1771421123  0.7510406987
 H  0.0043586408 -2.0515817043  0.8238225486
 H  0.0854210256  1.3601900008 -1.8185659609
 H -0.1305352654 -1.3174523338 -1.7935309830
 H  0.0603020865  0.0528543212  2.2033875982
10
step 26
 N  0.0435089703  0.0509687939  1.1769735947
 C -0.0173448609 -1.0803248597  0.3364926456
 C  0.0564335362  1.1680971743  0.3482739143
 C  0.0631642725  0.7374423755 -0.9395481021
 C -0.0516677406 -0.6925435422 -0.9247375413
 H -0.0052859346  2.1733223762  0.7544551660
 H -0.0009731337 -2.0460214976  0.8264659782
 H  0.0843723290  1.3639141223 -1.8164722082
 H -0.1299446219 -1.3219038729 -1.7915374679
 H  0.0621661547  0.0683761424  2.2076187392
10
step 27
 N  0.0449343745  0.0536403945  1.1781735886
 C -0.0179439192 -1.0825633331  0.3380002160
 C  0.0585241778  1.1698937395  0.3493486865
 C  0.0644473165  0.7417065888 -0.9385273748
 C -0.0527872531 -0.6926678017 -0.9230911210
 H  0.0059130033  2.1689237483  0.7577327208
 H -0.0067409708 -2.0406466519  0.8281131366
 H  0.0830861438  1.3675933756 -1.8143111810
 H -0.1290273833 -1.3266914695 -1.7897627108
 H  0.0639190968  0.0834876371  2.2102980491
10
step 28
 N  0.0463398700  0.0562718283  1.1792600614
 C -0.0185372037 -1.0848081849  0.3401841137
 C  0.0606395096  1.1716677748  0.3503271079
 C  0.0655980341  0.7460267315 -0.9374017483
 C -0.0538048164 -0.6926267805 -0.9217740688
 H  0.0178745490  2.1645325049  0.7610499828
 H -0.0129101916 -2.0361683090  0.8290800150
 H  0.0815966112  1.3713030365 -1.8122107572
 H -0.1277995736 -1.3315940503 -1.7880297898
 H  0.0655521913  0.0979910262  2.2112046795
10
step 29
 N  0.0477255776  0.0588532718  1.1802308948
 C -0.0191278223 -1.0869527698  0.3430044965
 C  0.0627874538  1.1733720298  0.3511930034
 C  0.0666114987  0.7503532027 -0.9361669496
 C -0.0547167212 -0.6924157211 -0.9207762686
 H  0.0305265578  2.1607309284  0.7645869095
 H -0.0194491538 -2.0332843677  0.8297109561
 H  0.0799388587  1.3751172629 -1.8102882446
 H -0.1262801340 -1.3363930676 -1.7861750129
 H  0.0670611368  0.1117053767  2.2103245874
10
step 30
 N  0.0490913805  0.0613742715  1.1810733658
 C -0.0197189981 -1.0888977923  0.3464061879
 C  0.0649754452  1.1749672558  0.3519353632
 C  0.0674832094  0.7546379024 -0.9348256583
 C -0.0555190271 -0.6920330993 -0.9200715418
 H  0.0438032507  2.1580253441  0.7684976236
 H -0.0263297392 -2.0325826385  0.8303273377
 H  0.0781488983  1.3790944899 -1.8086298022
 H -0.1244923549 -1.3408873374 -1.7840650906
 H  0.0684464474  0.1244735272  2.2078547814
10
step 31
 N  0.0504369657  0.0638233833  1.1817655002
 C -0.0203141044 -1.0905606871  0.3503256189
 C  0.0672104026  1.1764287961  0.3525511035
 C  0.0682092011  0.7588356822 -0.9333885131
 C -0.0562077113 -0.6914792865 -0.9196185801
 H  0.0576463863  2.1567722144  0.7728793121
 H -0.0335263985 -2.0344439743  0.8311746619
 H  0.0762631264  1.3832684552 -1.8072795236
 H -0.1224644433 -1.3449077590 -1.7816137628
 H  0.0697131672  0.1361681109  2.2041819744
10
step 32
 N  0.0517618904  0.0661881134  1.1822793938
 C -0.0209168946 -1.0918831912  0.3546965982
 C  0.0694989768  1.1777513900  0.3530468969
 C  0.0687860836  0.7629052877 -0.9318745523
 C -0.0567787820 -0.6907552990 -0.9193626867
 H  0.0720023607  2.1571251781  0.7777484759
 H -0.0410125330 -2.0389684425  0.8323823335
 H  0.0743181508  1.3876420723 -1.8062325617
 H -0.1202295377 -1.3483270203 -1.7787909166
 H  0.0708700827  0.1466942256  2.1998380861
10
step 33
 N  0.0530656855  0.0684552162  1.1825860294
 C -0.0215318437 -1.0928353510  0.3594542014
 C  0.0718480136  1.1789511232  0.3534397730
 C  0.0692110609  0.7668098276 -0.9303108015
 C -0.0572284268 -0.6898618086 -0.9192381816
 H  0.0868164304  2.1590131721  0.7830296098
 H -0.0487553121 -2.0459429464  0.8339463927
 H  0.0723506853  1.3921858198 -1.8054349627
 H -0.1178251364 -1.3510645207 -1.7756249703
 H  0.0719284474  0.1559882899  2.1954342372
10
step 34
 N  0.0543479925  0.0706113670  1.1826611688
 C -0.0221644702 -1.0934150382  0.3645362587
 C  0.0742650814  1.1800640171  0.3537562403
 C  0.0694819447  0.7705168095 -0.9287309560
 C -0.0575531895 -0.6887985205 -0.9191712664
 H  0.1020259999  2.1621548658  0.7885593882
 H -0.0567106910 -2.0548598730  0.8357397264
 H  0.0703974177  1.3968408182 -1.8047904447
 H -0.1152920713 -1.3530863851 -1.7721987513
 H  0.0729003583  0.1640129666  2.1915782077
10
step 35
 N  0.0556087158  0.0726441309  1.1824915411
 C -0.0228214974 -1.0936432912  0.3698827067
 C  0.0767588833  1.1811415618  0.3540300153
 C  0.0695971741  0.7739978384 -0.9271732435
 C -0.0577501587 -0.6875639761 -0.9190831906
 H  0.1175552418  2.1661057153  0.7941055892
 H -0.0648204299 -2.0649821844  0.8375458793
 H  0.0684947661  1.4015259407 -1.8041731321
 H -0.1126731740 -1.3544007052 -1.7686394259
 H  0.0737970413  0.1707489675  2.1887855580
10
step 36
 N  0.0568481632  0.0745430554  1.1820801980
 C -0.0235107687 -1.0935568415  0.3754336688
 C  0.0793394103  1.1822441610  0.3542987551
 C  0.0695558507  0.7772281161 -0.9256776686
 C -0.0578171546 -0.6861557920 -0.9188935944
 H  0.1333128254  2.1703265373  0.7993964570
 H -0.0730122025 -2.0754384054  0.8391061563
 H  0.0666784787  1.4061476963 -1.8034443492
 H -0.1100117962 -1.3550484587 -1.7651034083
 H  0.0746273971  0.1761856505  2.1873996960
10
step 37
 N  0.0580671455  0.0763006515  1.1814497982
 C -0.0242409153 -1.0931996022  0.3811272805
 C  0.0820177748  1.1834337469  0.3546003535
 C  0.0693577937  0.7801858894 -0.9242829222
 C -0.0577529029 -0.6845712977 -0.9185239027
 H  0.1491934504  2.1742595504  0.8041544566
 H -0.0812028069 -2.0853265012  0.8401681366
 H  0.0649830837  1.4106113046 -1.8024710821
 H -0.1073503499 -1.3550909729 -1.7617576071
 H  0.0753971620  0.1803130594  2.1875379875
10
step 38
 N  0.0592669769  0.0779128761  1.1806427234
 C -0.0250207946 -1.0926145068  0.3868982305
 C  0.0848056944  1.1847668254  0.3549694805
 C  0.0690037044  0.7828518856 -0.9230232467
 C -0.0575572166 -0.6828084810 -0.9179006268
 H  0.1650823254  2.1773989562  0.8081283203
 H -0.0893033512 -2.0938080980  0.8405262852
 H  0.0634413593  1.4148318239 -1.8011444590
 H -0.1047291540 -1.3545954171 -1.7587593844
 H  0.0761089814  0.1831175413  2.1890772019
10
step 39
 N  0.0604495051  0.0793796973  1.1797184779
 C -0.0258589630 -1.0918370692  0.3926766245
 C  0.0877148985  1.1862881312  0.3554343010
 C  0.0684951216  0.7852092027 -0.9219256778
 C -0.0572310605 -0.6808670832 -0.9169583996
 H  0.1808632581  2.1793503748  0.8111210550
 H -0.0972264094 -2.1001869145  0.8400516390
 H  0.0620833944  1.4187422580 -1.7993931934
 H -0.1021852281 -1.3536197827 -1.7562355416
 H  0.0767631090  0.1845834580  2.1916807527
10
step 40
 N  0.0616169958  0.0807046933  1.1787480482
 C -0.0267630357 -1.0908903959  0.3983881275
 C  0.0907562956  1.1880262573  0.3560141181
 C  0.0678345825  0.7872431439 -0.9210077539
 C -0.0567766478 -0.6787496497 -0.9156424849
 H  0.1964269754  2.1798725649  0.8130099103
 H -0.1048926980 -2.1039626343  0.8387085300
 H  0.0609361326  1.4222998286 -1.7971941550
 H -0.0997518292 -1.3521998183 -1.7542653828
 H  0.0773589066  0.1846987203  2.1948630423
10
step 41
 N  0.0627720180  0.0818945484  1.1778069094
 C -0.0277391246 -1.0897819263  0.4039547325
 C  0.0939391547  1.1899907000  0.3567178674
 C  0.0670257342  0.7889414066 -0.9202760115
 C -0.0561974799 -0.6764623631 -0.9139106659
 H  0.2116797011  2.1789026381  0.8137587937
 H -0.1122374214 -2.1048655548  0.8365612827
 H  0.0600229068  1.4254886551 -1.7945771612
 H -0.0974583167 -1.3503400626 -1.7528689355
 H  0.0778964839  0.1834631340  2.1980734188
10
step 42
 N  0.0639173274  0.0829584313  1.1769678596
 C -0.0287913589 -1.0885016977  0.4092960634
 C  0.0972703453  1.1921705450  0.3575435262
 C  0.0660734503  0.7902945104 -0.9197253827
 C -0.0554983547 -0.6740154759 -0.9117343826
 H  0.2265507965  2.1765649922  0.8134229798
 H -0.1192156813 -2.1028737015  0.8337729327
 H  0.0593631626  1.4283187341 -1.7916238478
 H -0.0953304147 -1.3480104928 -1.7520022716
 H  0.0783781958  0.1808969081  2.2007834516
10
step 43
 N  0.0650557700  0.0839074149  1.1762947013
 C -0.0299215223 -1.0870220914  0.4143311296
 C  0.1007537257  1.1945348358  0.3584784922
 C  0.0649839521  0.7912964929 -0.9193395313
 C -0.0546853553 -0.6714232958 -0.9090990912
 H  0.2409984274  2.1731639457  0.8121458739
 H -0.1258065120 -2.0982136477  0.8305973287
 H  0.0589723411  1.4308213032 -1.7884608320
 H -0.0933907726 -1.3451495283 -1.7515607352
 H  0.0788097603  0.1770472915  2.2025638225
10
step 44
 N  0.0661902261  0.0847541019  1.1758374662
 C -0.0311288677 -1.0852992912  0.4189804348
 C  0.1043897905  1.1970347513  0.3595008993
 C  0.0637649103  0.7919458449 -0.9190920680
 C -0.0537658148 -0.6687037292 -0.9060039143
 H  0.2550121575  2.1691590694  0.8101473519
 H -0.1320150101 -2.0913440379  0.8273649913
 H  0.0588618855  1.4330408206 -1.7852475272
 H -0.0916596878 -1.3416728842 -1.7513893562
 H  0.0792008868  0.1719921306  2.2031427486
10
step 45
 N  0.0673235947  0.0855124531  1.1756294899
 C -0.0324101660 -1.0832767772  0.4231685634
 C  0.1081756741  1.1996077425  0.3605818781
 C  0.0624255339  0.7922465424 -0.9189485495
 C -0.0527482722 -0.6658773913 -0.9024607750
 H  0.2686114211  2.1651219437  0.8077031853
 H -0.1378718339 -2.0829181388  0.8244620134
 H  0.0590393480  1.4350242408 -1.7821596198
 H -0.0901558693 -1.3374868792 -1.7512988601
 H  0.0795654086  0.1658400006  2.2024421119
10
step 46
 N  0.0684588134  0.0861977918  1.1756864140
 C -0.0337600688 -1.0808911843  0.4268274013
 C  0.1121056035  1.2021836014  0.3616887186
 C  0.0609766490  0.7922090905 -0.9188690439
 C -0.0516424324 -0.6629664350 -0.8984932209
 H  0.2818389187  2.1616741970  0.8051155588
 H -0.1434291501 -2.0737210895  0.8223008027
 H  0.0595085084  1.4368088138 -1.7793700820
 H -0.0888971365 -1.3325043015 -1.7510852424
 H  0.0799209780  0.1587271189  2.2005898260
10
step 47
 N  0.0695989096  0.0868269727  1.1760071550
 C -0.0351718536 -1.0780806138  0.4298999944
 C  0.1161718472  1.2046920953  0.3627886859
 C  0.0594307517  0.7918514833 -0.9188109481
 C -0.0504591227 -0.6599932862 -0.8941351156
 H  0.2947485732  2.1594102261  0.8026764483
 H -0.1487522969 -2.0645804648  0.8212823938
 H  0.0602694146  1.4384100046 -1.7770300513
 H -0.0879009894 -1.3266606989 -1.7505505758
 H  0.0802883962  0.1508115317  2.1979077125
10
step 48
 N  0.0707470729  0.0874186607  1.1765768424
 C -0.0366385352 -1.0747948333  0.4323448689
 C  0.1203660696  1.2070712980  0.3638530228
 C  0.0578020380  0.7911999191 -0.9187317164
 C -0.0492102450 -0.6569794272 -0.8894293735
 H  0.3073890358  2.1588135384  0.8006283137
 H -0.1539072765 -2.0562559090  0.8217524234
 H  0.0613182902  1.4398113903 -1.7752521492
 H -0.0871850293 -1.3199291504 -1.7495228689
 H  0.0806906640  0.1422653276  2.1948742111
10
step 49
 N  0.0719067320  0.0879936268  1.1773716012
 C -0.0381541947 -1.0710058852  0.4341403773
 C  0.1246808419  1.2092752625  0.3648604974
 C  0.0561064141  0.7902891048 -0.9185911810
 C -0.0479087240 -0.6539443338 -0.8844268642
 H  0.3197855316  2.1601810456  0.7991290404
 H -0.1589456817 -2.0493237134  0.8239561521
 H  0.0626472976  1.4409583869 -1.7740987036
 H -0.0867672342 -1.3123319989 -1.7478732197
 H  0.0811518573  0.1332659758  2.1920624202
10
step 50
 N  0.0730816259  0.0885748637  1.1783648420
 C -0.0397153368 -1.0667167743  0.4352882848
 C  0.1291110716  1.2112793687  0.3657998965
 C  0.0543613464  0.7891622595 -0.9183532589
 C -0.0465683665 -0.6509049398 -0.8791852547
 H  0.3319242674  2.1635726776  0.7982287596
 H -0.1638900685 -2.0440797668  0.8280002158
 H  0.0642442738  1.4417575732 -1.7735772573
 H -0.0866660962 -1.3039488148 -1.7455298043
 H  0.0816958505  0.1239881960  2.1900559640
10
step 51
 N  0.0742758353  0.0891876995  1.1795340706
 C -0.0413215654 -1.0619663429  0.4358159816
 C  0.1336544841  1.2130826742  0.3666705082
 C  0.0525860791  0.7878697361 -0.9179867613
 C -0.0452039280 -0.6478744639 -0.8737689393
 H  0.3437434616  2.1687958292  0.7978649705
 H -0.1687246161 -2.0404915808  0.8338329231
 H  0.0660922922  1.4420805467 -1.7736412025
 H -0.0869005686 -1.2949179361 -1.7424833217
 H  0.0823454347  0.1145981530  2.1893598048
10
step 52
 N  0.0754937725  0.0898592691  1.1808671283
 C -0.0429758608 -1.0568281724  0.4357767311
 C  0.1383117207  1.2147060325  0.3674813143
 C  0.0508014012  0.7864679200 -0.9174655061
 C -0.0438309425 -0.6448625554 -0.8682482015
 H  0.3551342174  2.1754329614  0.7978759330
 H -0.1733929946 -2.0382062162  0.8412442545
 H  0.0681695782  1.4417750279 -1.7742001238
 H -0.0874899237 -1.2854347795 -1.7387907668
 H  0.0831214105  0.1052507109  2.1903105592
10
step 53
 N  0.0767401186  0.0906176964  1.1823663769
 C -0.0446840277 -1.0514041116  0.4352477401
 C  0.1430855448  1.2161870563  0.3682486911
 C  0.0490294816  0.7850173882 -0.9167677752
 C -0.0424655991 -0.6418755331 -0.8626986653
 H  0.3659507466  2.1829029949  0.7980296759
 H -0.1778049504 -2.0366174995  0.8498892209
 H  0.0704496933  1.4406798729 -1.7751347352
 H -0.0884533993 -1.2757441173 -1.7345716317
 H  0.0840421286  0.0960904679  2.1930134837
10
step 54
 N  0.0780197153  0.0914909936  1.1840496977
 C -0.0464535491 -1.0458139217  0.4343263651
 C  0.1479794929  1.2175730697  0.3689933463
 C  0.0472936490  0.7835807266 -0.9158753582
 C -0.0411246111 -0.6389170136 -0.8572006789
 H  0.3760274478  2.1905428066  0.7980614266
 H -0.1818495473 -2.0349724004  0.8593284428
 H  0.0729021036  1.4386424769 -1.7763147616
 H -0.0898095619 -1.2661270219 -1.7299972966
 H  0.0851233978  0.0872555136  2.1973207512
10
step 55
 N  0.0793374223  0.0925058643  1.1859479280
 C -0.0482921580 -1.0401833122  0.4331250354
 C  0.1529963143  1.2189134811  0.3697371659
 C  0.0456180992  0.7822202026 -0.9147724378
 C -0.0398250783 -0.6359889278 -0.8518385267
 H  0.3851991100  2.1976928567  0.7977119256
 H -0.1854116299 -2.0324905565  0.8690773803
 H  0.0754931838  1.4355363587 -1.7776172352
 H -0.0915753654 -1.2568831695 -1.7252739748
 H  0.0863787071  0.0788818662  2.2028571519
10
step 56
 N  0.0806979515  0.0936866221  1.1880993051
 C -0.0502064188 -1.0346324184  0.4317654851
 C  0.1581364967  1.2202527489  0.3705004882
 C  0.0440275437  0.7809954964 -0.9134445666
 C -0.0385843624 -0.6330928772 -0.8466993766
 H  0.3933205482  2.2037742747  0.7967608943
 H -0.1883880055 -2.0284745083  0.8786559603
 H  0.0781875834  1.4312768570 -1.7789428960
 H -0.0937648785 -1.2483098805 -1.7206205044
 H  0.0878196624  0.0711064899  2.2090865378
10
step 57
 N  0.0821056951  0.0950543796  1.1905422050
 C -0.0522005136 -1.0292660244  0.4303727296
 C  0.1633970619  1.2216246605  0.3713000801
 C  0.0425468305  0.7799616640 -0.9118779503
 C -0.0374199961 -0.6302317062 -0.8418718529
 H  0.4002830796  2.2083501687  0.7950526251
 H -0.1907009570 -2.0223976295  0.8876329706
 H  0.0809497972  1.4258332548 -1.7802287964
 H -0.0963876961 -1.2406799486 -1.7162433509
 H  0.0894565336  0.0640675842  2.2154025955
10
step 58
 N  0.0835645581  0.0966265693  1.1933076700
 C -0.0542753143 -1.0241660641  0.4290690371
 C  0.1687707194  1.2230482440  0.3721478851
 C  0.0412005611  0.7791674532 -0.9100592061
 C -0.0363496318 -0.6274110956 -0.8374441106
 H  0.4060265313  2.2111686703  0.7925129107
 H -0.1923080669 -2.0139659927  0.8956626384
 H  0.0837457389  1.4192361315 -1.7814557073
 H -0.0994471367 -1.2342207872 -1.7123121369
 H  0.0912988388  0.0579019512  2.2212246373
10
step 59
 N  0.0850778036  0.0984167714  1.1964129703
 C -0.0564277546 -1.0193864402  0.4279680524
 C  0.1742454071  1.2245254008  0.3730505016
 C  0.0400127225  0.7786540520 -0.9079757082
 C -0.0353910234 -0.6246409435 -0.8335012960
 H  0.4105463400  2.2121877861  0.7891576910
 H -0.1932082711 -2.0031558808  0.9025128514
 H  0.0865441107  1.4115792608 -1.7826494276
 H -0.1029384347 -1.2290975197 -1.7089394843
 H  0.0933559227  0.0527401614  2.2260824529
10
step 60
 N  0.0866479215  0.1004347727  1.1998569858
 C -0.0586504951 -1.0149500655  0.4271692686
 C  0.1798042455  1.2260402934  0.3740093256
 C  0.0390063398  0.7784543014 -0.9056165685
 C -0.0345620146 -0.6219363043 -0.8301223488
 H  0.4138956192  2.2115824491  0.7850939154
 H -0.1934443767 -1.9902297350  0.9080849770
 H  0.0893173826  1.4030158619 -1.7838755946
 H -0.1068472334 -1.2254022326 -1.7061686183
 H  0.0956375158  0.0487006525  2.2296803503
10
step 61
 N  0.0882765260  0.1026867685  1.2036177926
 C -0.0609319008 -1.0108481678  0.4267531880
 C  0.1854259510  1.2275605897  0.3750213264
 C  0.0382031529  0.7785923670 -0.9029742263
 C -0.0338804993 -0.6193177036 -0.8273762443
 H  0.4161819879  2.2097330071  0.7805126165
 H -0.1931020951 -1.9757311784  0.9124243206
 H  0.0920422432  1.3937495146 -1.7852281300
 H -0.1111487258 -1.2231507206 -1.7039709501
 H  0.0981542623  0.0458839141  2.2319358458
10
step 62
 N  0.0899642925  0.1051756191  1.2076526055
 C -0.0632563856 -1.0070421630  0.4267777152
 C  0.1910857682  1.2290407457  0.3760804578
 C  0.0376233218  0.7790838219 -0.9000465369
 C -0.0333643218 -0.6168107306 -0.8253179632
 H  0.4175587967  2.2071929913  0.7756736340
 H -0.1923052348 -1.9604561852  0.9157185012
 H  0.0946994553  1.3840206138 -1.7868121222
 H -0.1158077358 -1.2222868840 -1.7022539994
 H  0.1009181891  0.0443677681  2.2329913433
10
step 63
 N  0.0917109418  0.1079010793  1.2119001234
 C -0.0656051917 -1.0034686103  0.4272764895
 C  0.1967569431  1.2304274832  0.3771797121
 C  0.0372851694  0.7799360481 -0.8968391519
 C -0.0330310976 -0.6144449068 -0.8239846393
 H  0.4182105473  2.2046338051  0.7708814095
 H -0.1912064153 -1.9453945896  0.9182793480
 H  0.0972731391  1.3740899069 -1.7887228193
 H -0.1207798841 -1.2226937816 -1.7008780804
 H  0.1039430344  0.0442046142  2.2331979147
10
step 64
 N  0.0935152803  0.1108599292  1.2162852453
 C -0.0679576454 -1.0000476879  0.4282598400
 C  0.2024126679  1.2316673705  0.3783137504
 C  0.0372049720  0.7811488213 -0.8933678892
 C -0.0328979500 -0.6122519350 -0.8233923898
 H  0.4183331127  2.2027663106  0.7664522950
 H -0.1899728820 -1.9316364208  0.9205038059
 H  0.0997496413  1.3642212725 -1.7910233913
 H -0.1260137856 -1.2242094711 -1.6996787334
 H  0.1072442858  0.0454213190  2.2330705252
10
step 65