27
step 0
 O  4.4575584196  0.5143550375  1.2277119784
 O  3.8238014376  1.1258789358 -0.8676520080
 N  2.0193538429  0.5681253704  2.2002863574
 N -2.4675309167  1.2906867021  1.2240273616
 C  2.0343618308  0.5055310153  0.7123409530
 C  3.5117000008  0.7628021236  0.2498772186
 C  1.0475391154  1.4732072298 -0.0002093585
 C -0.4056230294  1.1812466195  0.3287867864
 C -1.2034170564  1.8878046355  1.1496576807
 C -1.1987636989  0.0683155659 -0.1779113418
 C -2.4744896187  0.1721158555  0.3885780617
 C -0.9331373860 -0.9882314622 -1.0666033866
 C -3.4974438016 -0.7446365462  0.1026786911
 C -1.9291135028 -1.8859563662 -1.3496310498
 C -3.2068324706 -1.7637350783 -0.7655442727
 H  3.9076572422  0.3166752760  2.0281633585
 H  1.7885531460 -0.5220477028  0.4334813442
 H  1.8581393492  1.5476521567  2.4823036287
 H  1.2189781992  1.3896860320 -1.0723738599
 H  1.2898398705  2.4948106006  0.2877351332
 H -0.9959122384  2.7870904119  1.7136592057
 H  0.0428049388 -1.0888657950 -1.5249615116
 H -3.2747273481  1.6750691093  1.7130587017
 H -1.7419595571 -2.7038515850 -2.0325216326
 H -4.4763591178 -0.6444400297  0.5516237234
 H -3.9696955209 -2.4912764263 -1.0130750552
 H  1.1947178544  0.0519883454  2.5405133348
27
step 1
 O  4.4597598618  0.5135062346  1.2288004800
 O  3.8231667770  1.1301291491 -0.8625668944
 N  2.0221218038  0.5672995713  2.2004230247
 N -2.4640216556  1.2866958406  1.2262689850
 C  2.0315351988  0.5070694476  0.7107718333
 C  3.5091122485  0.7644643901  0.2486413886
 C  1.0487259669  1.4705900691 -0.0013952920
 C -0.4032831121  1.1787390689  0.3283462023
 C -1.2067841829  1.8882214862  1.1496102289
 C -1.1978279307  0.0623265077 -0.1792257282
 C -2.4730377574  0.1703972213  0.3858814474
 C -0.9325069807 -0.9909746449 -1.0658799083
 C -3.4938728300 -0.7469075759  0.1031335219
 C -1.9326790615 -1.8870447880 -1.3510956431
 C -3.2067330931 -1.7650186517 -0.7632064606
 H  3.9133177540  0.3100514505  2.0273207630
 H  1.7908081104 -0.5254861687  0.4348415867
 H  1.8552442023  1.5541105405  2.4688299579
 H  1.2164055499  1.4060772947 -1.0605779856
 H  1.2944502633  2.4923357205  0.2845039881
 H -1.0082338062  2.7781675140  1.7092402019
 H  0.0348300681 -1.0913769060 -1.5240842405
 H -3.2723141729  1.6815033466  1.7114385636
 H -1.7363460375 -2.6981590685 -2.0246227890
 H -4.4751930336 -0.6510394939  0.5479475260
 H -3.9676161108 -2.4732199005 -1.0091376470
 H  1.1909719438  0.0475423759  2.5397929318
27
step 2
 O  4.4619519100  0.5126650901  1.2298479900
 O  3.8225466401  1.1344035817 -0.8575434553
 N  2.0248322385  0.5664918243  2.2005637077
 N -2.4605625510  1.2827034573  1.2285216839
 C  2.0287479309  0.5085372210  0.7092049177
 C  3.5065378783  0.7660960893  0.2475219819
 C  1.0498786960  1.4680312711 -0.0024581818
 C -0.4010055442  1.1762499158  0.3279336674
 C -1.2100963084  1.8885079208  1.1494579903
 C -1.1968656709  0.0564003154 -0.1805097496
 C -2.4715923719  0.1686804517  0.3832091011
 C -0.9319637899 -0.9937451994 -1.0651488120
 C -3.4903228042 -0.7491613102  0.1036059611
 C -1.9362177990 -1.8880602256 -1.3524961576
 C -3.2065378554 -1.7662300539 -0.7608677732
 H  3.9187632026  0.3033830873  2.0267246063
 H  1.7930704298 -0.5286166226  0.4361906419
 H  1.8523671604  1.5600352645  2.4555049425
 H  1.2141191289  1.4220352322 -1.0504150311
 H  1.2989491913  2.4898153987  0.2814718062
 H -1.0202134536  2.7704010877  1.7055014764
 H  0.0276664428 -1.0939891455 -1.5235551055
 H -3.2696543138  1.6876817823  1.7095667015
 H -1.7307310551 -2.6933088405 -2.0174483584
 H -4.4739786864 -0.6575504711  0.5443311711
 H -3.9666565890 -2.4564009414 -1.0055945235
 H  1.1878418601  0.0436194907  2.5388697153
27
step 3
 O  4.4641231309  0.5118388276  1.2308180245
 O  3.8219559778  1.1387234059 -0.8526453449
 N  2.0274327130  0.5657229185  2.2007079653
 N -2.4572034597  1.2787094874  1.2307926944
 C  2.0260425141  0.5098657952  0.7076446125
 C  3.5039902493  0.7676659352  0.2466310358
 C  1.0509637972  1.4655856605 -0.0032854231
 C -0.3988503404  1.1737984083  0.3275753389
 C -1.2132953743  1.8885447556  1.1491042978
 C -1.1958528153  0.0506023822 -0.1817327865
 C -2.4701605544  0.1669684132  0.3805869986
 C -0.9315870165 -0.9965673756 -1.0644053430
 C -3.4868169103 -0.7513781633  0.1041138726
 C -1.9397009892 -1.8889375534 -1.3537745336
 C -3.2061579999 -1.7673057813 -0.7585309660
 H  3.9238057779  0.2966375158  2.0265666283
 H  1.7953387086 -0.5311637800  0.4375100743
 H  1.8495301458  1.5649353520  2.4425058858
 H  1.2123818466  1.4371662022 -1.0434014909
 H  1.3032258364  2.4872193993  0.2788465200
 H -1.0315365970  2.7648563756  1.7030697899
 H  0.0220538076 -1.0967952707 -1.5236916131
 H -3.2665476524  1.6933624824  1.7072261433
 H -1.7251186539 -2.6900679660 -2.0116569948
 H -4.4726705445 -0.6638800120  0.5408369200
 H -3.9678690167 -2.4419623110 -1.0028196355
 H  1.1858426912  0.0406673952  2.5375850719
27
step 4
 O  4.4662600483  0.5110331368  1.2316812655
 O  3.8214089399  1.1431091752 -0.8479319857
 N  2.0298821702  0.5650143850  2.2008485239
 N -2.4539880021  1.2747107245  1.2330854075
 C  2.0234619565  0.5109929786  0.7060974015
 C  3.5014820197  0.7691442837  0.2460720628
 C  1.0519524600  1.4633005131 -0.0037969824
 C -0.3968714299  1.1714013033  0.3272935715
 C -1.2163219373  1.8882407689  1.1484719703
 C -1.1947677079  0.0449951186 -0.1828651451
 C -2.4687484648  0.1652637498  0.3780403107
 C -0.9314367505 -0.9994638944 -1.0636507140
 C -3.4833777089 -0.7535380242  0.1046756819
 C -1.9430984761 -1.8896313109 -1.3548888605
 C -3.2055295326 -1.7682063597 -0.7562052178
 H  3.9283155702  0.2897989152  2.0269598493
 H  1.7975966231 -0.5329171272  0.4387689231
 H  1.8467579546  1.5684218796  2.4300327078
 H  1.2113925736  1.4511451774 -1.0406708397
 H  1.3071787170  2.4845401924  0.2768346176
 H -1.0419595135  2.7623242362  1.7024007986
 H  0.0185463694 -1.0998707423 -1.5247290501
 H -3.2628768243  1.6983446638  1.7042570722
 H -1.7195419744 -2.6890064496 -2.0077404992
 H -4.4712285915 -0.6699371485  0.5375272185
 H -3.9720407324 -2.4307650473 -1.0010999544
 H  1.1853297355  0.0390115002  2.5358471312
27
step 5
 O  4.4683463650  0.5102515174  1.2324175151
 O  3.8209180222  1.1475798434 -0.8434557138
 N  2.0321538763  0.5643870466  2.2009703441
 N -2.4509511549  1.2706998144  1.2353983365
 C  2.0210492742  0.5118655888  0.7045726216
 C  3.4990260445  0.7705046404  0.2459354377
 C  1.0528233021  1.4612152078 -0.0039634702
 C -0.3951149257  1.1690721897  0.3271060532
 C -1.2191147744  1.8875463643  1.1475126064
 C -1.1935919103  0.0396366418 -0.1838786267
 C -2.4673610408  0.1635687864  0.3755931168
 C -0.9315453988 -1.0024555040 -1.0628952050
 C -3.4800268720 -0.7556204580  0.1053101326
 C -1.9463765464 -1.8901244799 -1.3558204328
 C -3.2046291326 -1.7689279610 -0.7539101908
 H  3.9322372899  0.2828768376  2.0279152271
 H  1.7998100610 -0.5337535007  0.4399211658
 H  1.8440735055  1.5702486294  2.4183065024
 H  1.2112537825  1.4637140681 -1.0427518350
 H  1.3107194736  2.4817968544  0.2756319216
 H -1.0513350101  2.7631706558  1.7036833826
 H  0.0174249074 -1.1032638754 -1.5267766538
 H -3.2586329101  1.7024873510  1.7005718710
 H -1.7140917341 -2.6904019151 -2.0059483239
 H -4.4696219493 -0.6756340243  0.5344655975
 H -3.9795151867 -2.4232465103 -1.0005782430
 H  1.1864641156  0.0388279651  2.5336431040
27
step 6
 O  4.4703628177  0.5094949391  1.2330163533
 O  3.8204932383  1.1521517292 -0.8392591603
 N  2.0342367938  0.5638596249  2.2010507497
 N -2.4481178634  1.2666649414  1.2377247878
 C  2.0188467289  0.5124413802  0.7030828625
 C  3.4966364255  0.7717251040  0.2462942004
 C  1.0535636932  1.4593623059 -0.0038143415
 C -0.3936178831  1.1668211482  0.3270252751
 C -1.2216117948  1.8864603063  1.1462114156
 C -1.1923107734  0.0345796014 -0.1847471391
 C -2.4660017316  0.1618855008  0.3732681857
 C -0.9319131924 -1.0055604811 -1.0621596883
 C -3.4767849865 -0.7576052586  0.1060357459
 C -1.9494966745 -1.8904326695 -1.3565769659
 C -3.2034827721 -1.7695067775 -0.7516778210
 H  3.9355947097  0.2759104090  2.0293366389
 H  1.8019265683 -0.5336506250  0.4409052885
 H  1.8414938329  1.5703370031  2.4075637452
 H  1.2119575429  1.4746675153 -1.0494608382
 H  1.3137749889  2.4790335200  0.2754127557
 H -1.0596189524  2.7672616785  1.7067911547
 H  0.0186513719 -1.1069901239 -1.5297932325
 H -3.2539261607  1.7057206386  1.6961605326
 H -1.7089343875 -2.6941932202 -2.0062533526
 H -4.4678319623 -0.6808868996  0.5317174891
 H -3.9900939527 -2.4193606897 -1.0012223276
 H  1.1891993652  0.0401321800  2.5310427206
27
step 7
 O  4.4722877624  0.5087618833  1.2334764437
 O  3.8201413846  1.1568375469 -0.8353730414
 N  2.0361354987  0.5634475493  2.2010604678
 N -2.4455026439  1.2625902440  1.2400532418
 C  2.0168947876  0.5126902313  0.7016439101
 C  3.4943295473  0.7727896529  0.2472005261
 C  1.0541692724  1.4577690515 -0.0034327513
 C -0.3924074959  1.1646547279  0.3270582877
 C -1.2237525499  1.8850272337  1.1445861173
 C -1.1909137966  0.0298700864 -0.1854473680
 C -2.4646722344  0.1602155722  0.3710868026
 C -0.9325088899 -1.0087939695 -1.0614749489
 C -3.4736713918 -0.7594734265  0.1068699558
 C -1.9524159221 -1.8906025019 -1.3571910324
 C -3.2021635224 -1.7700141313 -0.7495507906
 H  3.9384820555  0.2689669246  2.0310355213
 H  1.8038769628 -0.5326909931  0.4416459104
 H  1.8390273940  1.5687847053  2.3980470852
 H  1.2133948987  1.4838367265 -1.0599498988
 H  1.3162877892  2.4763129882  0.2763188157
 H -1.0668555438  2.7739908857  1.7112989661
 H  0.0218787572 -1.1110321918 -1.5335895533
 H -3.2489812346  1.7080485580  1.6910865150
 H -1.7043121438 -2.6999972308 -2.0083692667
 H -4.4658543974 -0.6856171465  0.5293506604
 H -4.0030605476 -2.4186240879 -1.0028333247
 H  1.1932870205  0.0427811893  2.5281938206
27
step 8
 O  4.4740984028  0.5080487563  1.2338036928
 O  3.8198654630  1.1616456234 -0.8318145163
 N  2.0378686313  0.5631620032  2.2009654622
 N -2.4431101644  1.2584569453  1.2423684017
 C  2.0152308331  0.5125945830  0.7002742132
 C  3.4921249328  0.7736891817  0.2486831750
 C  1.0546420252  1.4564583183 -0.0029390716
 C -0.3915006744  1.1625761782  0.3272066869
 C -1.2254819003  1.8833269198  1.1426805136
 C -1.1893947595  0.0255465552 -0.1859595292
 C -2.4633722655  0.1585604131  0.3690686129
 C -0.9332753599 -1.0121670898 -1.0608787958
 C -3.4707039858 -0.7612084370  0.1078280304
 C -1.9550892248 -1.8907047958 -1.3577142361
 C -3.2007793523 -1.7705441111 -0.7475780839
 H  3.9410444903  0.2621346935  2.0327619710
 H  1.8055789371 -0.5310556626  0.4420573924
 H  1.8366731158  1.5658578944  2.3899937040
 H  1.2153841487  1.4910811519 -1.0728885081
 H  1.3182150039  2.4737070490  0.2784493751
 H -1.0731472852  2.7823987012  1.7165581940
 H  0.0265131435 -1.1153459760 -1.5378570457
 H -3.2441170607  1.7095430283  1.6854735919
 H -1.7005233654 -2.7071826869 -2.0118132578
 H -4.4637004149 -0.6897523808  0.5274349775
 H -4.0173163259 -2.4202470402 -1.0050891897
 H  1.1983012918  0.0464898510  2.5253103614
27
step 9
 O  4.4757724016  0.5073505849  1.2340086584
 O  3.8196643254  1.1665794037 -0.8285862808
 N  2.0394657366  0.5630091929  2.2007294974
 N -2.4409368034  1.2542451511  1.2446528518
 C  2.0138877009  0.5121490821  0.6989939176
 C  3.4900458073  0.7744221708  0.2507462141
 C  1.0549878120  1.4554486331 -0.0024691595
 C -0.3909039690  1.1605858750  0.3274668020
 C -1.2267539132  1.8814589480  1.1405550313
 C -1.1877516423  0.0216388094 -0.1862681608
 C -2.4620993689  0.1569211477  0.3672314469
 C -0.9341385094 -1.0156859873 -1.0604116662
 C -3.4678990126 -0.7627976789  0.1089218997
 C -1.9574730580 -1.8908245814 -1.3582088332
 C -3.1994554687 -1.7711981197 -0.7458091518
 H  3.9434519443  0.2555116514  2.0342459074
 H  1.8069424556 -0.5290078693  0.4420493147
 H  1.8344216965  1.5619662159  2.3836222183
 H  1.2177071190  1.4962908353 -1.0867090965
 H  1.3195263411  2.4712855327  0.2818543099
 H -1.0786200806  2.7913418389  1.7218046597
 H  0.0318105253 -1.1198705277 -1.5422148015
 H -3.2397124114  1.7103286992  1.6794848815
 H -1.6978889512 -2.7149780394 -2.0159945251
 H -4.4613961610 -0.6932276584  0.5260414704
 H -4.0315756673 -2.4233003164 -1.0076063883
 H  1.2036844207  0.0508615548  2.5226525281
27
step 10
 O  4.4772896247  0.5066618466  1.2341037491
 O  3.8195326039  1.1716373103 -0.8256765227
 N  2.0409624059  0.5629898350  2.2003174051
 N -2.4389730736  1.2499361736  1.2468891648
 C  2.0128921377  0.5113593882  0.6978235897
 C  3.4881192332  0.7749949170  0.2533690768
 C  1.0552141998  1.4547535511 -0.0021537904
 C -0.3906138128  1.1586818683  0.3278300647
 C -1.2275351842  1.8795270641  1.1382769414
 C -1.1859863998  0.0181670932 -0.1863628612
 C -2.4608487833  0.1552985603  0.3655911337
 C -0.9350174647 -1.0193510345 -1.0601117468
 C -3.4652708868 -0.7642338743  0.1101590565
 C -1.9595295488 -1.8910504047 -1.3587388589
 C -3.1983165864 -1.7720706451 -0.7442883532
 H  3.9458711604  0.2491919150  2.0352405514
 H  1.8078766481 -0.5268671419  0.4415335771
 H  1.8322594487  1.5576205616  2.3791188754
 H  1.2201427702  1.4993954791 -1.0998423786
 H  1.3202016440  2.4691059961  0.2865307492
 H -1.0833927552  2.7996645547  1.7262682505
 H  0.0369851637 -1.1245394851 -1.5462633727
 H -3.2361597409  1.7105594987  1.6732959806
 H -1.6967139566 -2.7225855274 -2.0203060498
 H -4.4589806740 -0.6959866810  0.5252406042
 H -4.0445592814 -2.4268679310 -1.0100003954
 H  1.2088136132  0.0554338703  2.5204987687
27
step 11
 O  4.4786337282  0.5059772993  1.2341006559
 O  3.8194609425  1.1768129530 -0.8230597701
 N  2.0423938982  0.5630989439  2.1996988859
 N -2.4372066792  1.2455151270  1.2490621781
 C  2.0122633427  0.5102401601  0.6967827536
 C  3.4863757789  0.7754212757  0.2565079795
 C  1.0553289910  1.4543808763 -0.0021030683
 C -0.3906170577  1.1568604603  0.3282834994
 C -1.2278070727  1.8776261803  1.1359121441
 C -1.1841046428  0.0151414450 -0.1862388721
 C -2.4596133929  0.1536930005  0.3641613163
 C -0.9358341449 -1.0231563148 -1.0600105183
 C -3.4628321099 -0.7655162391  0.1115417028
 C -1.9612301541 -1.8914648324 -1.3593623229
 C -3.1974726903 -1.7732386900 -0.7430507389
 H  3.9484404955  0.2432526099  2.0355610724
 H  1.8082978200 -0.5249752769  0.4404327753
 H  1.8301747739  1.5533748570  2.3766238933
 H  1.2224922812  1.5003741496 -1.1108980382
 H  1.3202285557  2.4672054510  0.2924231799
 H -1.0875557545  2.8063385563  1.7292627917
 H  0.0413092317 -1.1292917235 -1.5496349796
 H -3.2338123811  1.7103895413  1.6670656517
 H -1.6972529106 -2.7292804090 -2.0242031037
 H -4.4565020601 -0.6979829891  0.5250997939
 H -4.0551460800 -2.4301594088 -1.0119328536
 H  1.2130865678  0.0597369208  2.5191110486
27
step 12
 O  4.4797933763  0.5052926886  1.2340083555
 O  3.8194365072  1.1820956272 -0.8206985591
 N  2.0437879569  0.5633261068  2.1988524873
 N -2.4356257388  1.2409734654  1.2511610760
 C  2.0120117421  0.5088123882  0.6958883885
 C  3.4848487537  0.7757219405  0.2600985346
 C  1.0553394196  1.4543320726 -0.0023966035
 C -0.3908917510  1.1551167657  0.3288102846
 C -1.2275667565  1.8758331305  1.1335192350
 C -1.1821152786  0.0125613878 -0.1858974447
 C -2.4583837902  0.1521042368  0.3629532810
 C -0.9365210961 -1.0270894612 -1.0601293057
 C -3.4605933288 -0.7666512242  0.1130662463
 C -1.9625583789 -1.8921371055 -1.3601252299
 C -3.1970093533 -1.7747552477 -0.7421194686
 H  3.9512507183  0.2377430114  2.0351131732
 H  1.8081379714 -0.5236571125  0.4386892469
 H  1.8281668977  1.5497563438  2.3762188041
 H  1.2245948552  1.4992615365 -1.1187812086
 H  1.3196007271  2.4655950676  0.2994261826
 H -1.0911593346  2.8105600876  1.7302485404
 H  0.0441919545 -1.1340797881 -1.5520337288
 H -3.2329329425  1.7099429562  1.6609088643
 H -1.6996837572 -2.7344853253 -2.0272611053
 H -4.4540122493 -0.6991810716  0.5256803850
 H -4.0624728429 -2.4325782574 -1.0131422521
 H  1.2160155601  0.0633576942  2.5186971273
27
step 13
 O  4.4807629771  0.5046052411  1.2338318984
 O  3.8194437147  1.1874710207 -0.8185457474
 N  2.0451581255  0.5636564627  2.1977691950
 N -2.4342215268  1.2363110394  1.2531808800
 C  2.0121381112  0.5071004056  0.6951535358
 C  3.4835730788  0.7759233447  0.2640592641
 C  1.0552517620  1.4546019593 -0.0030783455
 C -0.3914080842  1.1534452210  0.3293903401
 C -1.2268272784  1.8742008886  1.1311456802
 C -1.1800301512  0.0104159903 -0.1853459541
 C -2.4571484669  0.1505312702  0.3619758188
 C -0.9370271909 -1.0311318529 -1.0604770388
 C -3.4585635428 -0.7676527594  0.1147231843
 C -1.9635113629 -1.8931180630 -1.3610575118
 C -3.1969819964 -1.7766460082 -0.7415045958
 H  3.9543337029  0.2326774691  2.0339085061
 H  1.8073530195 -0.5231806557  0.4362739059
 H  1.8262557171  1.5471929752  2.3779156757
 H  1.2263364624  1.4961495905 -1.1227570835
 H  1.3183168941  2.4642583744  0.3073888160
 H -1.0942091031  2.8118086128  1.7288699546
 H  0.0452348226 -1.1388756231 -1.5532637176
 H -3.2336523721  1.7092885942  1.6548774276
 H -1.7040916587 -2.7378192166 -2.0292129318
 H -4.4515608828 -0.6995573775  0.5270343618
 H -4.0659902271 -2.4337568640 -1.0134609634
 H  1.2173126657  0.0659988350  2.5193763323
27
step 14
 O  4.4815428809  0.5039138822  1.2335720871
 O  3.8194651033  1.1929220445 -0.8165472359
 N  2.0464991746  0.5640724694  2.1964549562
 N -2.4329901025  1.2315372568  1.2551230332
 C  2.0126331419  0.5051290460  0.6945861633
 C  3.4825838862  0.7760562945  0.2682956720
 C  1.0550710801  1.4551786347 -0.0041544237
 C -0.3921294482  1.1518400132  0.3300009075
 C -1.2256168434  1.8727553763  1.1288255534
 C -1.1778637061  0.0086842889 -0.1845977511
 C -2.4558941254  0.1489721258  0.3612351241
 C -0.9373212653 -1.0352591390 -1.0610491810
 C -3.4567504249 -0.7685419966  0.1164973630
 C -1.9641003873 -1.8944370300 -1.3621706385
 C -3.1974129121 -1.7789081802 -0.7412027723
 H  3.9576598638  0.2280330925  2.0320655439
 H  1.8059297628 -0.5237222622  0.4331937344
 H  1.8244907723  1.5459501352  2.3816492446
 H  1.2276544360  1.4911851096 -1.1224823941
 H  1.3163810119  2.4631531322  0.3161199216
 H -1.0966662984  2.8098778872  1.7249755763
 H  0.0442646100 -1.1436737424 -1.5532456525
 H -3.2359482979  1.7084253962  1.6489524057
 H -1.7104617140 -2.7391248831 -2.0299693314
 H -4.4491890540 -0.6991012549  0.5292010721
 H -4.0654899207 -2.4335709348 -1.0128233218
 H  1.2169454870  0.0675186318  2.5211565722
27
step 15
 O  4.4821390472  0.5032191388  1.2332260629
 O  3.8194822638  1.1984297234 -0.8146448528
 N  2.0477859530  0.5645562345  2.1949315458
 N -2.4319324318  1.2266710788  1.2569949634
 C  2.0134775284  0.5029214399  0.6941884285
 C  3.4819149423  0.7761544518  0.2727045578
 C  1.0548009006  1.4560435461 -0.0055926925
 C -0.3930135426  1.1502954014  0.3306171052
 C -1.2239775905  1.8714940622  1.1265783305
 C -1.1756326790  0.0073360270 -0.1836717674
 C -2.4546061024  0.1474236351  0.3607347324
 C -0.9373939125 -1.0394420405 -1.0618276900
 C -3.4551606848 -0.7693465837  0.1183685774
 C -1.9643504294 -1.8961003390 -1.3634566448
 C -3.1982900915 -1.7815105969 -0.7411974986
 H  3.9611443984  0.2237527256  2.0297958009
 H  1.8038905930 -0.5253426591  0.4294966933
 H  1.8229568234  1.5460898057  2.3872732054
 H  1.2285401683  1.4845641530 -1.1180187181
 H  1.3138034681  2.4622167558  0.3253940799
 H -1.0984508531  2.8048889806  1.7186261299
 H  0.0413472826 -1.1484921895 -1.5520234475
 H -3.2396476098  1.7072820600  1.6430499325
 H -1.7186791785 -2.7384794536 -2.0296260308
 H -4.4469236962 -0.6978158365  0.5322042656
 H -4.0611148236 -2.4321431335 -1.0112684601
 H  1.2151475647  0.0679422129  2.5239287819
27
step 16
 O  4.4825622201  0.5025227187  1.2327887420
 O  3.8194767637  1.2039741061 -0.8127791841
 N  2.0489760802  0.5650918505  2.1932354973
 N -2.4310529975  1.2217398291  1.2588087516
 C  2.0146426236  0.5004978377  0.6939564551
 C  3.4815969878  0.7762527755  0.2771783156
 C  1.0544427744  1.4571716904 -0.0073234318
 C -0.3940135083  1.1488059070  0.3312124533
 C -1.2219639797  1.8703859884  1.1244085178
 C -1.1733557831  0.0063326511 -0.1825919027
 C -2.4532688959  0.1458812001  0.3604754892
 C -0.9372575428 -1.0436473800 -1.0627819020
 C -3.4538003805 -0.7700995072  0.1203124735
 C -1.9642988676 -1.8980913768 -1.3648884850
 C -3.1995674988 -1.7843947894 -0.7414597637
 H  3.9646616962  0.2197532108  2.0273764154
 H  1.8012950957 -0.5279782439  0.4252729648
 H  1.8217737689  1.5474619540  2.3945619920
 H  1.2290408616  1.4765236722 -1.1098341308
 H  1.3106032161  2.4613748804  0.3349583851
 H -1.0994462972  2.7972893894  1.7100934449
 H  0.0367844237 -1.1533715407 -1.5497616405
 H -3.2444527161  1.7057311372  1.6370387808
 H -1.7285364227 -2.7361893423 -2.0284589099
 H -4.4447733659 -0.6957188634  0.5360497397
 H -4.0533567362 -2.4298395184 -1.0089393171
 H  1.2123800140  0.0674418723  2.5274806800
27
step 17
 O  4.4828266995  0.5018268009  1.2322549400
 O  3.8194310086  1.2095351754 -0.8108921882
 N  2.0500157961  0.5656670515  2.1914152441
 N -2.4303572928  1.2167770384  1.2605792336
 C  2.0160916791  0.4978756205  0.6938806838
 C  3.4816560903  0.7763860023  0.2816090462
 C  1.0539958092  1.4585319924 -0.0092415142
 C -0.3950790700  1.1473663517  0.3317593697
 C -1.2196408318  1.8693734476  1.1223062608
 C -1.1710533660  0.0056285125 -0.1813862292
 C -2.4518667775  0.1443385347  0.3604555488
 C -0.9369446141 -1.0478393016 -1.0638703266
 C -3.4526750936 -0.7708375571  0.1223017072
 C -1.9639933660 -1.9003723582 -1.3664218637
 C -3.2011671744 -1.7874772795 -0.7419491607
 H  3.9680663496  0.2159382754  2.0251115983
 H  1.7982380464 -0.5314494033  0.4206519119
 H  1.8210898619  1.5497306952  2.4032190437
 H  1.2292597592  1.4673302444 -1.0987898461
 H  1.3068105133  2.4605524026  0.3445404572
 H -1.0995065094  2.7878353631  1.6998483269
 H  0.0310911255 -1.1583719273 -1.5467332013
 H -3.2499856713  1.7036141842  1.6307653668
 H -1.7397467865 -2.7327676042 -2.0269056366
 H -4.4427260111 -0.6928433833  0.5407238627
 H -4.0430372044 -2.4272556986 -1.0060765095
 H  1.2092550873  0.0662932715  2.5315264834
27
step 18
 O  4.4829488602  0.5011331269  1.2316218890
 O  3.8193290071  1.2150937459 -0.8089294878
 N  2.0508475269  0.5662737218  2.1895269651
 N -2.4298488168  1.2118197104  1.2623219355
 C  2.0177816213  0.4950703951  0.6939467816
 C  3.4821121089  0.7765872316  0.2858923628
 C  1.0534564213  1.4600879235 -0.0112111357
 C -0.3961576875  1.1459717275  0.3322296378
 C -1.2170809936  1.8683760861  1.1202494262
 C -1.1687470140  0.0051722333 -0.1800860473
 C -2.4503844603  0.1427873835  0.3606704080
 C -0.9365037725 -1.0519806570 -1.0650434160
 C -3.4517899150 -0.7715994904  0.1243073027
 C -1.9634889376 -1.9028882543 -1.3679988628
 C -3.2029842060 -1.7906538468 -0.7426157860
 H  3.9712179509  0.2122145428  2.0232874960
 H  1.7948438436 -0.5354843380  0.4157948337
 H  1.8210689576  1.5524293770  2.4128916821
 H  1.2293527152  1.4572658944 -1.0860991646
 H  1.3024698273  2.4596861025  0.3538581135
 H -1.0984650620  2.7775480054  1.6885314331
 H  0.0249521307 -1.1635677902 -1.5432962901
 H -3.2558412808  1.7007724197  1.6240807733
 H -1.7519658619 -2.7288888017 -2.0255298391
 H -4.4407490749 -0.6892382168  0.5461931738
 H -4.0312591689 -2.4251834957 -1.0030032786
 H  1.2064412330  0.0648196218  2.5357456288
27
step 19
 O  4.4829456428  0.5004420412  1.2308917221
 O  3.8191570157  1.2206323231 -0.8068422854
 N  2.0514175815  0.5669072094  2.1876297931
 N -2.4295262130  1.2069054418  1.2640512011
 C  2.0196652437  0.4920978561  0.6941370100
 C  3.4829773722  0.7768866586  0.2899307993
 C  1.0528186700  1.4617983430 -0.0130747000
 C -0.3971957142  1.1446169045  0.3325948471
 C -1.2143625742  1.8672984973  1.1182078222
 C -1.1664590921  0.0049081970 -0.1787248400
 C -2.4488077866  0.1412172330  0.3611129853
 C -0.9359936739 -1.0560345346 -1.0662473612
 C -3.4511492176 -0.7724239923  0.1263001301
 C -1.9628442625 -1.9055732672 -1.3695536604
 C -3.2048959076 -1.7938068091 -0.7434033486
 H  3.9740055640  0.2085082564  2.0221271956
 H  1.7912579912 -0.5397540705  0.4108843391
 H  1.8218741008  1.5550326278  2.4231915399
 H  1.2295176803  1.4466120976 -1.0732398772
 H  1.2976424310  2.4587377431  0.3626308688
 H -1.0961483275  2.7676301315  1.6768992589
 H  0.0191530494 -1.1690399792 -1.5398586380
 H -3.2616400185  1.6970770399  1.6168649245
 H -1.7648199325 -2.7253165974 -2.0249637728
 H -4.4387919924 -0.6849680655  0.5524051472
 H -4.0193130321 -2.4245451727 -1.0000964096
 H  1.2045695921  0.0633360451  2.5398229092
27
step 20
 O  4.4828332913  0.4997516774  1.2300734237
 O  3.8189040525  1.2261358826 -0.8045888889
 N  2.0516827749  0.5675647856  2.1857810075
 N -2.4293810342  1.2020697806  1.2657787476
 C  2.0216936275  0.4889760004  0.6944318810
 C  3.4842556568  0.7773104849  0.2936367419
 C  1.0520755689  1.4636183749 -0.0146672443
 C -0.3981395655  1.1432962148  0.3328268171
 C -1.2115657291  1.8660420765  1.1161500039
 C -1.1642122323  0.0047781127 -0.1773371872
 C -2.4471244038  0.1396150387  0.3617737514
 C -0.9354746029 -1.0599658813 -1.0674288070
 C -3.4507562246 -0.7733475645  0.1282523993
 C -1.9621175514 -1.9083597928 -1.3710202836
 C -3.2067760519 -1.7968161173 -0.7442538041
 H  3.9763670370  0.2047796392  2.0217539462
 H  1.7876366886 -0.5439128004  0.4061116971
 H  1.8236504580  1.5570317127  2.4337184556
 H  1.2299734804  1.4356350849 -1.0618030053
 H  1.2924082144  2.4577063161  0.3705929442
 H -1.0923934064  2.7593340518  1.6657399172
 H  0.0144871768 -1.1748650666 -1.5368301407
 H -3.2670734175  1.6924545204  1.6090446287
 H -1.7779391306 -2.7228041341 -2.0258289769
 H -4.4367908530 -0.6801131716  0.5592900549
 H -4.0085257714 -2.4262845311 -0.9977394509
 H  1.2041559166  0.0621025901  2.5434842261
27
step 21
 O  4.4826265883  0.4990574859  1.2291837861
 O  3.8185622783  1.2315925167 -0.8021358730
 N  2.0516153470  0.5682437524  2.1840316866
 N -2.4293964100  1.1973441119  1.2675127535
 C  2.0238185626  0.4857273103  0.6948118926
 C  3.4859415211  0.7778800162  0.2969348293
 C  1.0512215855  1.4654999776 -0.0158363972
 C -0.3989369104  1.1420029960  0.3328980359
 C -1.2087690566  1.8645207020  1.1140523045
 C -1.1620287869  0.0047225844 -0.1759577186
 C -2.4453244047  0.1379650040  0.3626409119
 C -0.9349986873 -1.0637431308 -1.0685400677
 C -3.4506124037 -0.7744025017  0.1301390398
 C -1.9613625139 -1.9111889153 -1.3723416368
 C -3.2085133191 -1.7995739506 -0.7451133323
 H  3.9782988349  0.2010318401  2.0221700989
 H  1.7841357794 -0.5476378005  0.4016637165
 H  1.8265102825  1.5580019170  2.4440852714
 H  1.2309263495  1.4245774742 -1.0532764311
 H  1.2868662822  2.4566378097  0.3775068288
 H -1.0870709446  2.7537842213  1.6557626664
 H  0.0116460488 -1.1811024560 -1.5345680559
 H -3.2719371948  1.6869039949  1.6006039772
 H -1.7909899926 -2.7219772754 -2.0286420787
 H -4.4346747815 -0.6747684856  0.5667637267
 H -4.0000607686 -2.4312167063 -0.9962603375
 H  1.2055442220  0.0612897500  2.5465248274
27
step 22
 O  4.4823387346  0.4983522355  1.2282470987
 O  3.8181272521  1.2369939062 -0.7994589247
 N  2.0512060209  0.5689396403  2.1824231240
 N -2.4295467016  1.1927542676  1.2692574955
 C  2.0259947470  0.4823806229  0.6952591288
 C  3.4880200092  0.7786109388  0.2997638081
 C  1.0502560892  1.4673919115 -0.0164651550
 C -0.3995379223  1.1407292252  0.3327821670
 C -1.2060458431  1.8626777531  1.1119084314
 C -1.1599302590  0.0046826075 -0.1746201839
 C -2.4434009192  0.1362484555  0.3637006310
 C -0.9346003414 -1.0673397165 -1.0695440706
 C -3.4507167362 -0.7756151409  0.1319388252
 C -1.9606251747 -1.9140204201 -1.3734781930
 C -3.2100304411 -1.8020005230 -0.7459386631
 H  3.9798540201  0.1973123892  2.0232563967
 H  1.7809002288 -0.5506642678  0.3977105178
 H  1.8305216220  1.5576550532  2.4539411584
 H  1.2325278443  1.4136608865 -1.0487932235
 H  1.2811339502  2.4556305280  0.3831757908
 H -1.0801107936  2.7517824200  1.6474801224
 H  0.0111113355 -1.1877809292 -1.5333237524
 H -3.2761496470  1.6805053649  1.5915869479
 H -1.8037001982 -2.7232228504 -2.0337225526
 H -4.4323734460 -0.6690423433  0.5747309257
 H -3.9947069877 -2.4398614949 -0.9958651803
 H  1.2088727777  0.0609569571  2.5488290469
27
step 23
 O  4.4819818393  0.4976265187  1.2272935600
 O  3.8175980706  1.2423356223 -0.7965434348
 N  2.0504652768  0.5696447631  2.1809841809
 N -2.4297981594  1.1883199340  1.2710135316
 C  2.0281815866  0.4789725026  0.6957585404
 C  3.4904667311  0.7795127434  0.3020779005
 C  1.0491868951  1.4692391978 -0.0164917797
 C -0.3998966479  1.1394653876  0.3324546927
 C -1.2034605222  1.8604999921  1.1097367647
 C -1.1579367167  0.0046009458 -0.1733566805
 C -2.4413506117  0.1344438689  0.3649372708
 C -0.9342891324 -1.0707353448 -1.0704180533
 C -3.4510649409 -0.7770045995  0.1336351019
 C -1.9599421558 -1.9168396971 -1.3744142250
 C -3.2112983274 -1.8040568693 -0.7467020099
 H  3.9811288863  0.1937066234  2.0247917451
 H  1.7780550250 -0.5528121777  0.3943951879
 H  1.8357015504  1.5558742015  2.4629917159
 H  1.2348345283  1.4030998103 -1.0489093195
 H  1.2753438019  2.4548337845  0.3874532875
 H -1.0715257328  2.7536463872  1.6411155216
 H  0.0130721090 -1.1948872718 -1.5332028280
 H -3.2797543791  1.6734179161  1.5820926913
 H -1.8158692997 -2.7266111029 -2.0411255669
 H -4.4298250385 -0.6630546510  0.5830891181
 H -3.9927222750 -2.4523079493 -0.9965884239
 H  1.2140607678  0.0610432275  2.5503815627
27
step 24
 O  4.4815678637  0.4968696627  1.2263567307
 O  3.8169774139  1.2476172942 -0.7933848822
 N  2.0494228999  0.5703472056  2.1797297181
 N -2.4301106126  1.1840547654  1.2727783137
 C  2.0303444660  0.4755479576  0.6962987819
 C  3.4932482719  0.7805883214  0.3038477044
 C  1.0480326544  1.4709827579 -0.0159201288
 C -0.3999725555  1.1382006526  0.3318937124
 C -1.2010657748  1.8580235332  1.1075824654
 C -1.1560662406  0.0044233907 -0.1721970107
 C -2.4391739679  0.1325271261  0.3663336784
 C -0.9340470378 -1.0739168501 -1.0711551300