27
step 0
 O  4.4575584196  0.5143550375  1.2277119784
 O  3.8238014376  1.1258789358 -0.8676520080
 N  2.0193538429  0.5681253704  2.2002863574
 N -2.4675309167  1.2906867021  1.2240273616
 C  2.0343618308  0.5055310153  0.7123409530
 C  3.5117000008  0.7628021236  0.2498772186
 C  1.0475391154  1.4732072298 -0.0002093585
 C -0.4056230294  1.1812466195  0.3287867864
 C -1.2034170564  1.8878046355  1.1496576807
 C -1.1987636989  0.0683155659 -0.1779113418
 C -2.4744896187  0.1721158555  0.3885780617
 C -0.9331373860 -0.9882314622 -1.0666033866
 C -3.4974438016 -0.7446365462  0.1026786911
 C -1.9291135028 -1.8859563662 -1.3496310498
 C -3.2068324706 -1.7637350783 -0.7655442727
 H  3.9076572422  0.3166752760  2.0281633585
 H  1.7885531460 -0.5220477028  0.4334813442
 H  1.8581393492  1.5476521567  2.4823036287
 H  1.2189781992  1.3896860320 -1.0723738599
 H  1.2898398705  2.4948106006  0.2877351332
 H -0.9959122384  2.7870904119  1.7136592057
 H  0.0428049388 -1.0888657950 -1.5249615116
 H -3.2747273481  1.6750691093  1.7130587017
 H -1.7419595571 -2.7038515850 -2.0325216326
 H -4.4763591178 -0.6444400297  0.5516237234
 H -3.9696955209 -2.4912764263 -1.0130750552
 H  1.1947178544  0.0519883454  2.5405133348
27
step 1
 O  4.4597604158  0.5135060210  1.2288007539
 O  3.8231666173  1.1301302186 -0.8625656147
 N  2.0221225003  0.5672993635  2.2004230591
 N -2.4640207725  1.2866948364  1.2262695491
 C  2.0315344875  0.5070698347  0.7107714384
 C  3.5091115973  0.7644648084  0.2486410776
 C  1.0487262656  1.4705894105 -0.0013955904
 C -0.4032825233  1.1787384378  0.3283460914
 C -1.2067850303  1.8882215911  1.1496102170
 C -1.1978276952  0.0623250005 -0.1792260590
 C -2.4730373920  0.1703967888  0.3858807688
 C -0.9325068220 -0.9909753352 -1.0658797263
 C -3.4938719313 -0.7469081474  0.1031336363
 C -1.9326799587 -1.8870450619 -1.3510960117
 C -3.2067330681 -1.7650189747 -0.7632058723
 H  3.9133191785  0.3100497836  2.0273205510
 H  1.7908086778 -0.5254870339  0.4348419290
 H  1.8552434738  1.5541121657  2.4688265673
 H  1.2164049025  1.4060814195 -1.0605750172
 H  1.2944514235  2.4923350977  0.2845031750
 H -1.0082369069  2.7781652686  1.7092390899
 H  0.0348280612 -1.0913775379 -1.5240840198
 H -3.2723135656  1.6815049657  1.7114381559
 H -1.7363446249 -2.6981576360 -2.0246208013
 H -4.4751927401 -0.6510411546  0.5479466009
 H -3.9676155875 -2.4732153566 -1.0091366561
 H  1.1909710012  0.0475412571  2.5397927506
27
step 2
 O  4.4619530157  0.5126646648  1.2298485279
 O  3.8225463245  1.1344057270 -0.8575409116
 N  2.0248336173  0.5664914136  2.2005637774
 N -2.4605607976  1.2827014484  1.2285228149
 C  2.0287465184  0.5085379775  0.7092041285
 C  3.5065365789  0.7660969182  0.2475213889
 C  1.0498792846  1.4680299683 -0.0024587468
 C -0.4010043820  1.1762486585  0.3279334527
 C -1.2100979891  1.8885080973  1.1494579397
 C -1.1968651934  0.0563973169 -0.1805104035
 C -2.4715916428  0.1686795872  0.3832077500
 C -0.9319634948 -0.9937465868 -1.0651484458
 C -3.4903210123 -0.7491624488  0.1036061945
 C -1.9362195870 -1.8880607547 -1.3524968784
 C -3.2065377802 -1.7662306813 -0.7608665960
 H  3.9187659976  0.3033797419  2.0267242410
 H  1.7930715669 -0.5286182757  0.4361913239
 H  1.8523657076  1.5600383790  2.4554981998
 H  1.2141179073  1.4220433762 -1.0504095176
 H  1.2989514834  2.4898141418  0.2814702316
 H -1.0202195693  2.7703968957  1.7054994294
 H  0.0276626368 -1.0939904352 -1.5235547537
 H -3.2696530370  1.6876849556  1.7095658232
 H -1.7307282269 -2.6933061916 -2.0174445679
 H -4.4739780871 -0.6575537702  0.5443293358
 H -3.9666558366 -2.4563921713 -1.0055926450
 H  1.1878401266  0.0436173823  2.5388693030
27
step 3
 O  4.4641247836  0.5118381943  1.2308188075
 O  3.8219555139  1.1387266388 -0.8526415691
 N  2.0274347468  0.5657223158  2.2007080707
 N -2.4572008617  1.2787064735  1.2307943968
 C  2.0260404214  0.5098668857  0.7076434305
 C  3.5039883074  0.7676671585  0.2466302184
 C  1.0509646581  1.4655837407 -0.0032861924
 C -0.3988486350  1.1737965340  0.3275750336
 C -1.2132978601  1.8885449394  1.1491041568
 C -1.1958520833  0.0505979246 -0.1817337482
 C -2.4701594648  0.1669671178  0.3805849877
 C -0.9315866279 -0.9965694730 -1.0644047891
 C -3.4868142362 -0.7513798595  0.1041142342
 C -1.9397036548 -1.8889383023 -1.3537755754
 C -3.2061578246 -1.7673066776 -0.7585291996
 H  3.9238098432  0.2966324700  2.0265662168
 H  1.7953404164 -0.5311660740  0.4375110883
 H  1.8495279823  1.5649396917  2.4424958779
 H  1.2123801928  1.4371781734 -1.0433942656
 H  1.3032292042  2.4872174903  0.2788442915
 H -1.0315455635  2.7648508241  1.7030671559
 H  0.0220486048 -1.0967972691 -1.5236913061
 H -3.2665455921  1.6933670802  1.7072246775
 H -1.7251144002 -2.6900645188 -2.0116517575
 H -4.4726696144 -0.6638849035  0.5408342045
 H -3.9678686251 -2.4419499322 -1.0028170765
 H  1.1858404420  0.0406645337  2.5375843421
27
step 4
 O  4.4662622397  0.5110323008  1.2316822680
 O  3.8214083395  1.1431135133 -0.8479270256
 N  2.0298848210  0.5650136076  2.2008486632
 N -2.4539845968  1.2747067047  1.2330876870
 C  2.0234592160  0.5109943517  0.7060958298
 C  3.5014794433  0.7691458772  0.2460711047
 C  1.0519535681  1.4632980138 -0.0037978727
 C -0.3968692244  1.1713988254  0.3272931939
 C -1.2163251841  1.8882408720  1.1484716675
 C -1.1947667038  0.0449892497 -0.1828663916
 C -2.4687470195  0.1652620255  0.3780376588
 C -0.9314363266 -0.9994667204 -1.0636499686
 C -3.4833741695 -0.7535402631  0.1046761859
 C -1.9431019996 -1.8896322323 -1.3548901814
 C -3.2055291888 -1.7682074796 -0.7562028635
 H  3.9283207748  0.2897921412  2.0269595264
 H  1.7975988972 -0.5329198614  0.4387702529
 H  1.8467551058  1.5684270754  2.4300195771
 H  1.2113906799  1.4511607214 -1.0406630403
 H  1.3071830782  2.4845376126  0.2768319000
 H -1.0419711089  2.7623181287  1.7023980520
 H  0.0185403192 -1.0998735207 -1.5247290291
 H -3.2628738338  1.6983505005  1.7042548629
 H -1.7195362843 -2.6890027724 -2.0077342976
 H -4.4712272944 -0.6699435630  0.5375236681
 H -3.9720415201 -2.4307498977 -1.0010970029
 H  1.1853273300  0.0390081985  2.5358459775
27
step 5
 O  4.4683490834  0.5102504849  1.2324187069
 O  3.8209173007  1.1475853096 -0.8434496307
 N  2.0321570993  0.5643861180  2.2009705114
 N -2.4509469895  1.2706947859  1.2354011984
 C  2.0210459296  0.5118671791  0.7045706657
 C  3.4990228437  0.7705065726  0.2459344458
 C  1.0528246269  1.4612121756 -0.0039643929
 C -0.3951122740  1.1690691250  0.3271056255
 C -1.2191187225  1.8875462875  1.1475120590
 C -1.1935906122  0.0396294242 -0.1838801278
 C -2.4673592457  0.1635666356  0.3755898488
 C -0.9315450061 -1.0024590823 -1.0628942672
 C -3.4800224897 -0.7556232192  0.1053107986
 C -1.9463808997 -1.8901255229 -1.3558219869
 C -3.2046285461 -1.7689292602 -0.7539072553
 H  3.9322434918  0.2828683079  2.0279151287
 H  1.7998128877 -0.5337564418  0.4399227833
 H  1.8440700088  1.5702542409  2.4182904516
 H  1.2112518622  1.4637328844 -1.0427447169
 H  1.3107247235  2.4817935911  0.2756289348
 H -1.0513489825  2.7631648870  1.7036810453
 H  0.0174186296 -1.1032675182 -1.5267771901
 H -3.2586288356  1.7024941988  1.7005687396
 H -1.7140846136 -2.6903986421 -2.0059416975
 H -4.4696202396 -0.6756418697  0.5344612725
 H -3.9795180613 -2.4232295186 -1.0005752239
 H  1.1864619538  0.0388245784  2.5336414171
27
step 6
 O  4.4703660466  0.5094937164  1.2330177024
 O  3.8204924140  1.1521583513 -0.8392520268
 N  2.0342405400  0.5638585741  2.2010509337
 N -2.4481129927  1.2666588988  1.2377282362
 C  2.0188428353  0.5124431107  0.7030805308
 C  3.4966326130  0.7717273368  0.2462932996
 C  1.0535652013  1.4593587952 -0.0038152211
 C -0.3936148478  1.1668175155  0.3270248224
 C -1.2216163674  1.8864599536  1.1462105391
 C -1.1923091559  0.0345711110 -0.1847488578
 C -2.4659995933  0.1618829264  0.3732643321
 C -0.9319128962 -1.0055648404 -1.0621585630
 C -3.4767797890 -0.7576085159  0.1060365986
 C -1.9495018196 -1.8904337892 -1.3565787110
 C -3.2034818789 -1.7695082252 -0.7516743201
 H  3.9356017764  0.2759001053  2.0293368738
 H  1.8019299202 -0.5336535317  0.4409071504
 H  1.8414897359  1.5703425586  2.4075450406
 H  1.2119557972  1.4746892602 -1.0494555532
 H  1.3137810041  2.4790295708  0.2754097680
 H -1.0596350482  2.7672570826  1.7067896997
 H  0.0186454659 -1.1069947185 -1.5297945832
 H -3.2539208691  1.7057282449  1.6961562965
 H -1.7089258864 -2.6941909533 -2.0062468190
 H -4.4678297881 -0.6808960620  0.5317124663
 H -3.9900997347 -2.4193427304 -1.0012195458
 H  1.1891978431  0.0401290706  2.5310404060
27
step 7
 O  4.4722914800  0.5087604763  1.2334779187
 O  3.8201404777  1.1568453563 -0.8353649380
 N  2.0361397189  0.5634464096  2.2010606506
 N -2.4454971275  1.2625831779  1.2400572784
 C  2.0168904109  0.5126920166  0.7016412150
 C  3.4943251390  0.7727921437  0.2471998539
 C  1.0541709298  1.4577651251 -0.0034335407
 C -0.3924041459  1.1646505478  0.3270578365
 C -1.2237576541  1.8850265250  1.1445848347
 C -1.1909118321  0.0298604106 -0.1854492614
 C -2.4646697598  0.1602125775  0.3710823991
 C -0.9325087458 -1.0087991428 -1.0614736498
 C -3.4736654118 -0.7594771485  0.1068710251
 C -1.9524218090 -1.8906036673 -1.3571929365
 C -3.2021622832 -1.7700157193 -0.7495467531
 H  3.9384898817  0.2689548463  2.0310361479
 H  1.8038807958 -0.5326936417  0.4416479551
 H  1.8390227511  1.5687897461  2.3980260550
 H  1.2133934901  1.4838610066 -1.0599473082
 H  1.3162944313  2.4763083644  0.2763161333
 H -1.0668735269  2.7739881010  1.7112987305
 H  0.0218737162 -1.1110378191 -1.5335919181
 H -3.2489746419  1.7080566648  1.6910810042
 H -1.7043023828 -2.6999964510 -2.0083632528
 H -4.4658517047 -0.6856274910  0.5293450335
 H -4.0030698104 -2.4186058651 -1.0028310147
 H  1.1932864857  0.0427786917  2.5281908147
27
step 8
 O  4.4741025820  0.5080471697  1.2338052643
 O  3.8198644947  1.1616546538 -0.8318055268
 N  2.0378732796  0.5631608105  2.2009656183
 N -2.4431040644  1.2584488417  1.2423730249
 C  2.0152260486  0.5125963322  0.7002711715
 C  3.4921199491  0.7736918854  0.2486828746
 C  1.0546437985  1.4564540479 -0.0029397593
 C -0.3914970827  1.1625714722  0.3272062641
 C -1.2254874286  1.8833257991  1.1426787613
 C -1.1893924190  0.0255357914 -0.1859615492
 C -2.4633694613  0.1585570018  0.3690637001
 C -0.9332754077 -1.0121731137 -1.0608773478
 C -3.4706972604 -0.7612125877  0.1078293506
 C -1.9550957900 -1.8907059957 -1.3577162818
 C -3.2007777611 -1.7705458581 -0.7475735525
 H  3.9410530093  0.2621208641  2.0327629830
 H  1.8055831876 -0.5310578730  0.4420595379
 H  1.8366679833  1.5658620201  2.3899707347
 H  1.2153831871  1.4911075156 -1.0728890774
 H  1.3182221232  2.4737017752  0.2784473275
 H -1.0731669447  2.7823980839  1.7165593244
 H  0.0265092920 -1.1153527027 -1.5378605345
 H -3.2441091572  1.7095513926  1.6854666639
 H -1.7005125556 -2.7071836954 -2.0118080554
 H -4.4636971520 -0.6897637531  0.5274288585
 H -4.0173292983 -2.4202290290 -1.0050874850
 H  1.1983020012  0.0464882387  2.5253066465
27
step 9
 O  4.4757770099  0.5073488221  1.2340102999
 O  3.8196633165  1.1665896897 -0.8285764889
 N  2.0394707736  0.5630079842  2.2007295932
 N -2.4409301817  1.2542359907  1.2446580564
 C  2.0138825928  0.5121507023  0.6989905511
 C  3.4900402748  0.7744250418  0.2507464281
 C  1.0549896687  1.4554440989 -0.0024697701
 C -0.3909002103  1.1605806649  0.3274664340
 C -1.2267597468  1.8814573863  1.1405527621
 C -1.1877488965  0.0216270622 -0.1862702554
 C -2.4620962413  0.1569173239  0.3672260698
 C -0.9341387693 -1.0156929005 -1.0604101055
 C -3.4678915834 -0.7628022192  0.1089235083
 C -1.9574802254 -1.8908258266 -1.3582110196
 C -3.1994535554 -1.7712000696 -0.7458041827
 H  3.9434611325  0.2554961215  2.0342472307
 H  1.8069470389 -0.5290095271  0.4420514575
 H  1.8344161272  1.5619691281  2.3835977472
 H  1.2177066606  1.4963187718 -1.0867128813
 H  1.3195337790  2.4712796447  0.2818532344
 H -1.0786412271  2.7913434389  1.7218070954
 H  0.0318079897 -1.1198784028 -1.5422194184
 H -3.2397032801  1.7103371100  1.6794764314
 H -1.6978773999 -2.7149809350 -2.0159902764
 H -4.4613922837 -0.6932398868  0.5260349907
 H -4.0315922126 -2.4232827632 -1.0076053146
 H  1.2036865041  0.0508610110  2.5226481449
27
step 10
 O  4.4772946248  0.5066599093  1.2341054374
 O  3.8195315732  1.1716488859 -0.8256660074
 N  2.0409678010  0.5629886464  2.2003173992
 N -2.4389659895  1.2499259321  1.2468949414
 C  2.0128867965  0.5113607876  0.6978199253
 C  3.4881131860  0.7749979120  0.2533699401
 C  1.0552161086  1.4547488405 -0.0021543778
 C -0.3906099614  1.1586761760  0.3278297760
 C -1.2275411966  1.8795250577  1.1382741240
 C -1.1859832196  0.0181544723 -0.1863649758
 C -2.4608453369  0.1552943284  0.3655853413
 C -0.9350179370 -1.0193588764 -1.0601101197
 C -3.4652627987 -0.7642387632  0.1101609929
 C -1.9595372315 -1.8910517272 -1.3587411998
 C -3.1983144125 -1.7720728624 -0.7442830133
 H  3.9458810342  0.2491747614  2.0352420527
 H  1.8078814585 -0.5268682163  0.4415355928
 H  1.8322534867  1.5576221002  2.3790933809
 H  1.2201428251  1.4994244267 -1.0998490756
 H  1.3202092357  2.4690995378  0.2865309746
 H -1.0834152115  2.7996681405  1.7262717413
 H  0.0369838745 -1.1245485390 -1.5462690169
 H -3.2361495659  1.7105677889  1.6732859455
 H -1.6967020592 -2.7225902174 -2.0203027585
 H -4.4589761499 -0.6959995785  0.5252339149
 H -4.0445789377 -2.4268508929 -1.0099998825
 H  1.2088170485  0.0554344664  2.5204938243
27
step 11
 O  4.4786390788  0.5059751878  1.2341023703
 O  3.8194599060  1.1768258497 -0.8230486018
 N  2.0423996308  0.5630978089  2.1996987296
 N -2.4371991886  1.2455037761  1.2490685141
 C  2.0122578638  0.5102412511  0.6967788229
 C  3.4863692600  0.7754243555  0.2565096137
 C  1.0553309211  1.4543760817 -0.0021037077
 C -0.3906131854  1.1568543073  0.3282833123
 C -1.2278131340  1.8776237455  1.1359087614
 C -1.1841010004  0.0151280624 -0.1862409513
 C -2.4596096304  0.1536883651  0.3641551610
 C -0.9358348117 -1.0231651237 -1.0600088792
 C -3.4628234109 -0.7655214363  0.1115440066
 C -1.9612382571 -1.8914662826 -1.3593648453
 C -3.1974703427 -1.7732412528 -0.7430451028
 H  3.9484511028  0.2432339304  2.0355625754
 H  1.8083027321 -0.5249758296  0.4404345201
 H  1.8301684512  1.5533750244  2.3765978834
 H  1.2224928238  1.5004035139 -1.1109070686
 H  1.3202361324  2.4671984701  0.2924250126
 H -1.0875793442  2.8063436709  1.7292669337
 H  0.0413089497 -1.1293019714 -1.5496414589
 H -3.2338014432  1.7103975912  1.6670540084
 H -1.6972411324 -2.7292866416 -2.0242006615
 H -4.4564968720 -0.6979963564  0.5250930654
 H -4.0551681331 -2.4301428089 -1.0119327567
 H  1.2130911751  0.0597386081  2.5191057171
27
step 12
 O  4.4797990334  0.5052904021  1.2340100770
 O  3.8194354767  1.1821098731 -0.8206867969
 N  2.0437940152  0.5633250544  2.1988521264
 N -2.4356178932  1.2409609743  1.2511679561
 C  2.0120062227  0.5088130890  0.6958842274
 C  3.4848418166  0.7757250723  0.2601010430
 C  1.0553413408  1.4543272886 -0.0023973818
 C -0.3908879250  1.1551101733  0.3288102181
 C -1.2275727375  1.8758302984  1.1335152814
 C -1.1821111483  0.0125473547 -0.1858994339
 C -2.4583797118  0.1520992028  0.3629468183
 C -0.9365219247 -1.0270992724 -1.0601277136
 C -3.4605840694 -0.7666566918  0.1130689557
 C -1.9625668032 -1.8921387483 -1.3601279696
 C -3.1970069365 -1.7747582411 -0.7421136145
 H  3.9512621259  0.2377229168  2.0351144823
 H  1.8081428435 -0.5236572965  0.4386905621
 H  1.8281602337  1.5497553100  2.3761928026
 H  1.2245958355  1.4992907123 -1.1187918055
 H  1.3196081174  2.4655876116  0.2994298939
 H -1.0911838730  2.8105661145  1.7302528201
 H  0.0441923126 -1.1340912335 -1.5520407824
 H -3.2329215998  1.7099506878  1.6608956199
 H -1.6996726083 -2.7344927331 -2.0272593263
 H -4.4540063973 -0.6991946998  0.5256738058
 H -4.0624964087 -2.4325619384 -1.0131423764
 H  1.2160210219  0.0633603123  2.5186916408
27
step 13
 O  4.4807688951  0.5046027784  1.2338336083
 O  3.8194426974  1.1874866392 -0.8185334367
 N  2.0451645032  0.5636555155  2.1977685720
 N -2.4342133738  1.2362973773  1.2531882874
 C  2.0121326479  0.5071006422  0.6951491833
 C  3.4835657877  0.7759265036  0.2640627278
 C  1.0552536455  1.4545972799 -0.0030793533
 C -0.3914043654  1.1534382100  0.3293904091
 C -1.2268330546  1.8741976984  1.1311411588
 C -1.1800255096  0.0104014148 -0.1853478011
 C -2.4571440696  0.1505258422  0.3619691061
 C -0.9370281378 -1.0311426968 -1.0604755540
 C -3.4585537752 -0.7676584641  0.1147263340
 C -1.9635200092 -1.8931199729 -1.3610605097
 C -3.1969796242 -1.7766495181 -0.7414986030
 H  3.9543459818  0.2326560730  2.0339094317
 H  1.8073576985 -0.5231807022  0.4362746246
 H  1.8262487227  1.5471910592  2.3778902076
 H  1.2263378148  1.4961779849 -1.1227683725
 H  1.3183239258  2.4642504871  0.3073946319
 H -1.0942343911  2.8118148421  1.7288737926
 H  0.0452353733 -1.1388882640 -1.5532710424
 H -3.2336410276  1.7092959559  1.6548626060
 H -1.7040816671 -2.7378273636 -2.0292115890
 H -4.4515543842 -0.6995710519  0.5270281360
 H -4.0660143316 -2.4337406337 -1.0134610868
 H  1.2173185741  0.0660021380  2.5193709621
27
step 14
 O  4.4815490141  0.5039112422  1.2335737662
 O  3.8194641012  1.1929390538 -0.8165344072
 N  2.0465058661  0.5640716433  2.1964540141
 N -2.4329816871  1.2315223958  1.2551309514
 C  2.0126278279  0.5051287520  0.6945816606
 C  3.4825763164  0.7760594644  0.2683001481
 C  1.0550728984  1.4551741498 -0.0041557479
 C -0.3921258899  1.1518326037  0.3300011223
 C -1.2256222981  1.8727518702  1.1288204736
 C -1.1778585332  0.0086692732 -0.1845994077
 C -2.4558894027  0.1489663085  0.3612282208
 C -0.9373222807 -1.0352710396 -1.0610478617
 C -3.4567402029 -0.7685479118  0.1165009832
 C -1.9641091604 -1.8944392869 -1.3621739368
 C -3.1974107004 -1.7789122882 -0.7411967177
 H  3.9576730746  0.2280104994  2.0320659280
 H  1.8059340916 -0.5237224561  0.4331936901
 H  1.8244834586  1.5459477619  2.3816248192
 H  1.2276560870  1.4912121653 -1.1224934648
 H  1.3163875143  2.4631448503  0.3161280144
 H -1.0966921191  2.8098835782  1.7249783690
 H  0.0442648761 -1.1436875761 -1.5532529311
 H -3.2359373591  1.7084323410  1.6489360311
 H -1.7104533983 -2.7391333120 -2.0299681910
 H -4.4491819403 -0.6991147584  0.5291954158
 H -4.0655135738 -2.4335546046 -1.0128232163
 H  1.2169514110  0.0675223288  2.5211516010
27
step 15
 O  4.4821453508  0.5032163209  1.2332276900
 O  3.8194812736  1.1984481359 -0.8146315212
 N  2.0477929477  0.5645555393  2.1949302316
 N -2.4319237974  1.2266549965  1.2570033769
 C  2.0134724506  0.5029205563  0.6941838171
 C  3.4819071798  0.7761576264  0.2727100780
 C  1.0548026278  1.4560393392 -0.0055944097
 C -0.3930101889  1.1502876132  0.3306174710
 C -1.2239826181  1.8714902799  1.1265727055
 C -1.1756269586  0.0073206651 -0.1836731908
 C -2.4546010438  0.1474174323  0.3607276987
 C -0.9373949449 -1.0394550135 -1.0618265889
 C -3.4551500638 -0.7693526911  0.1183726919
 C -1.9643592418 -1.8961030234 -1.3634602826
 C -3.1982881509 -1.7815153753 -0.7411914543
 H  3.9611585785  0.2237290208  2.0297955387
 H  1.8038944189 -0.5253433061  0.4294957300
 H  1.8229492145  1.5460874437  2.3872502986
 H  1.2285420442  1.4845893694 -1.1180286911
 H  1.3138092736  2.4622081067  0.3254045612
 H -1.0984769709  2.8048934228  1.7186272900
 H  0.0413468078 -1.1485072191 -1.5520303767
 H -3.2396374467  1.7072885232  1.6430320156
 H -1.7186730221 -2.7384877325 -2.0296248874
 H -4.4469160093 -0.6978289535  0.5321994024
 H -4.0611370910 -2.4321265522 -1.0112679121
 H  1.2151531239  0.0679460130  2.5239244735
27
step 16
 O  4.4825686513  0.5025197234  1.2327902937
 O  3.8194757772  1.2039939281 -0.8127653499
 N  2.0489833570  0.5650912911  2.1932337660
 N -2.4310441874  1.2217225114  1.2588176473
 C  2.0146378604  0.5004963120  0.6939517753
 C  3.4815891285  0.7762559581  0.2771848862
 C  1.0544443863  1.4571678356 -0.0073256012
 C -0.3940103925  1.1487977595  0.3312129696
 C -1.2219684879  1.8703819610  1.1244023620
 C -1.1733495031  0.0063170266 -0.1825930571
 C -2.4532634869  0.1458746146  0.3604683856
 C -0.9372585434 -1.0436614324 -1.0627810633
 C -3.4537894170 -0.7701057980  0.1203170990
 C -1.9643076428 -1.8980945650 -1.3648924948
 C -3.1995659270 -1.7844002963 -0.7414537941
 H  3.9646768502  0.2197284517  2.0273754707
 H  1.8012982795 -0.5279796340  0.4252709487
 H  1.8217659161  1.5474600450  2.3945410271
 H  1.2290428966  1.4765466238 -1.1098422283
 H  1.3106081634  2.4613658806  0.3349712997
 H -1.0994724581  2.7972919660  1.7100924424
 H  0.0367828226 -1.1533877796 -1.5497679591
 H -3.2444436260  1.7057370172  1.6370193087
 H -1.7285328506 -2.7361971113 -2.0284576204
 H -4.4447651515 -0.6957313838  0.5360458952
 H -4.0533768124 -2.4298226082 -1.0089381481
 H  1.2123849412  0.0674455248  2.5274772508
27
step 17
 O  4.4828332184  0.5018236301  1.2322563902
 O  3.8194300129  1.2095564079 -0.8108778378
 N  2.0500233207  0.5656666300  2.1914130616
 N -2.4303483503  1.2167584811  1.2605886010
 C  2.0160872981  0.4978734054  0.6938759734
 C  3.4816482383  0.7763892053  0.2816166495
 C  1.0539972833  1.4585285523 -0.0092441710
 C -0.3950762142  1.1473578635  0.3317600296
 C -1.2196447438  1.8693691923  1.1222995871
 C -1.1710465195  0.0056126972 -0.1813870861
 C -2.4518609994  0.1443315677  0.3604484351
 C -0.9369455415 -1.0478544303 -1.0638697834
 C -3.4526638456 -0.7708440329  0.1223068527
 C -1.9640020413 -1.9003761177 -1.3664262671
 C -3.2011660484 -1.7874835543 -0.7419433203
 H  3.9680824452  0.2159124873  2.0251100099
 H  1.7982404717 -0.5314517768  0.4206487418
 H  1.8210818566  1.5497295893  2.4032003730
 H  1.2292619062  1.4673505960 -1.0987954681
 H  1.3068144502  2.4605430585  0.3445557788
 H -1.0995324420  2.7878356182  1.6998447329
 H  0.0310881327 -1.1583894050 -1.5467387161
 H -3.2499778546  1.7036193315  1.6307443002
 H -1.7397461452 -2.7327746200 -2.0269041529
 H -4.4427173117 -0.6928551071  0.5407212589
 H -4.0430544914 -2.4272384953 -1.0060745992
 H  1.2092592689  0.0662965931  2.5315240824
27
step 18
 O  4.4829554304  0.5011297837  1.2316232097
 O  3.8193279853  1.2151163843 -0.8089145951
 N  2.0508552499  0.5662734395  2.1895243106
 N -2.4298397855  1.2117999203  1.2623317670
 C  2.0177776780  0.4950674481  0.6939420745
 C  3.4821043747  0.7765904762  0.2859009586
 C  1.0534577355  1.4600849473 -0.0112142834
 C -0.3961551014  1.1459629165  0.3322304279
 C -1.2170842498  1.8683716003  1.1202422425
 C -1.1687395989  0.0051562857 -0.1800865867
 C -2.4503782906  0.1427800338  0.3606633429
 C -0.9365045963 -1.0519968489 -1.0650431881
 C -3.4517784419 -0.7716061632  0.1243129690
 C -1.9634974659 -1.9028926397 -1.3680036676
 C -3.2029835749 -1.7906609054 -0.7426101165
 H  3.9712349205  0.2121877195  2.0232853716
 H  1.7948454246 -0.5354878583  0.4157904497
 H  1.8210609391  1.5524292849  2.4128755702
 H  1.2293549580  1.4572834100 -1.0861019721
 H  1.3024726150  2.4596764121  0.3538757423
 H -1.0984904784  2.7775457143  1.6885249638
 H  0.0249476427 -1.1635865564 -1.5433008989
 H -3.2558348311  1.7007766351  1.6240580483
 H -1.7519684057 -2.7288949771 -2.0255282380
 H -4.4407399227 -0.6892489581  0.5461920229
 H -4.0312733542 -2.4251661932 -1.0030005869
 H  1.2064447216  0.0648225090  2.5357443275
27
step 19
 O  4.4829522312  0.5004385293  1.2308928845
 O  3.8191559477  1.2206563581 -0.8068268138
 N  2.0514254401  0.5669070688  2.1876266606
 N -2.4295171358  1.2068844369  1.2640614914
 C  2.0196617803  0.4920941389  0.6941323347
 C  3.4829698703  0.7768899738  0.2899403272
 C  1.0528198023  1.4617958657 -0.0130783045
 C -0.3971933946  1.1446077877  0.3325957468
 C -1.2143651331  1.8672937537  1.1182001295
 C -1.1664511121  0.0048921616 -0.1787250503
 C -2.4488011993  0.1412094966  0.3611060256
 C -0.9359943781 -1.0560517666 -1.0662474545
 C -3.4511375803 -0.7724308844  0.1263063103
 C -1.9628526132 -1.9055783173 -1.3695588582
 C -3.2048957862 -1.7938146400 -0.7433978776
 H  3.9740233133  0.2084803670  2.0221246957
 H  1.7912586785 -0.5397588081  0.4108787284
 H  1.8218662585  1.5550335963  2.4231781517
 H  1.2295200471  1.4466266409 -1.0732398686
 H  1.2976439485  2.4587277006  0.3626506318
 H -1.0961729234  2.7676253635  1.6768898141
 H  0.0191471554 -1.1690601066 -1.5398623442
 H -3.2616349262  1.6970800823  1.6168404595
 H -1.7648258173 -2.7253220262 -2.0249622750
 H -4.4387824021 -0.6849776573  0.5524056459
 H -4.0193241520 -2.4245281624 -1.0000929953
 H  1.2045725952  0.0633384722  2.5398227009
27
step 20
 O  4.4828398682  0.4997480005  1.2300744002
 O  3.8189029160  1.2261613009 -0.8045727933
 N  2.0516906952  0.5675647909  2.1857774057
 N -2.4293719519  1.2020475890  1.2657894934
 C  2.0216906729  0.4889714795  0.6944272611
 C  3.4842485032  0.7773139062  0.2936471242
 C  1.0520764960  1.4636164167 -0.0146712307
 C -0.3981374961  1.1432868078  0.3328277989
 C -1.2115675678  1.8660370206  1.1161417945
 C -1.1642036967  0.0047620196 -0.1773370656
 C -2.4471173697  0.1396069075  0.3617669513
 C -0.9354751861 -1.0599841209 -1.0674292132
 C -3.4507444853 -0.7733547076  0.1282590793
 C -1.9621257097 -1.9083655300 -1.3710258498
 C -3.2067764191 -1.7968246800 -0.7442485437
 H  3.9763854575  0.2047506401  2.0217512570
 H  1.7876364722 -0.5439187290  0.4061048966
 H  1.8236430263  1.5570336246  2.4337078491
 H  1.2299760535  1.4356466115 -1.0618005640
 H  1.2924083630  2.4576959192  0.3706145997
 H -1.0924168624  2.7593272071  1.6657276011
 H  0.0144801670 -1.1748866509 -1.5368330570
 H -3.2670695843  1.6924561215  1.6090183340
 H -1.7779484185 -2.7228090920 -2.0258279478
 H -4.4367808171 -0.6801214697  0.5592923792
 H -4.0085342348 -2.4262684222 -0.9977354784
 H  1.2041587676  0.0621045978  2.5434850342
27
step 21
 O  4.4826331270  0.4990536467  1.2291845527
 O  3.8185610494  1.2316193021 -0.8021191014
 N  2.0516232478  0.5682439092  2.1840276379
 N -2.4293873600  1.1973207712  1.2675239529
 C  2.0238161332  0.4857219578  0.6948073463
 C  3.4859348302  0.7778835842  0.2969459735
 C  1.0512222825  1.4654985447 -0.0158406518
 C -0.3989350615  1.1419933125  0.3328990646
 C -1.2087701715  1.8645152541  1.1140435641
 C -1.1620197106  0.0047064492 -0.1759572704
 C -2.4453168926  0.1379564654  0.3626343223
 C -0.9349991616 -1.0637623372 -1.0685407659
 C -3.4506006256 -0.7744099353  0.1301461991
 C -1.9613704790 -1.9111953478 -1.3723475328
 C -3.2085141217 -1.7995831778 -0.7451082806
 H  3.9783178190  0.2010016898  2.0221674006
 H  1.7841346893 -0.5476448034  0.4016558110
 H  1.8265035309  1.5580045109  2.4440773979
 H  1.2309292660  1.4245860151 -1.0532723129
 H  1.2868649909  2.4566270694  0.3775300744
 H -1.0870929282  2.7537760164  1.6557477765
 H  0.0116383927 -1.1811256124 -1.5345703916
 H -3.2719344571  1.6869038788  1.6005757643
 H -1.7910026657 -2.7219821864 -2.0286420030
 H -4.4346642669 -0.6747753731  0.5667680274
 H -4.0000673135 -2.4312023041 -0.9962560629
 H  1.2055473411  0.0612914266  2.5465265192
27
step 22
 O  4.4823452114  0.4983482346  1.2282476366
 O  3.8181259060  1.2370220401 -0.7994414205
 N  2.0512138181  0.5689399550  2.1824186629
 N -2.4295377160  1.1927298228  1.2692691476
 C  2.0259928474  0.4823744182  0.6952546694
 C  3.4880138912  0.7786146981  0.2997756099
 C  1.0502565309  1.4673909963 -0.0164695356
 C -0.3995362510  1.1407192760  0.3327832003
 C -1.2060462486  1.8626718164  1.1118991434
 C -1.1599206623  0.0046664315 -0.1746194226
 C -2.4433928963  0.1362394912  0.3636942994
 C -0.9346007269 -1.0673598418 -1.0695450307
 C -3.4507049827 -0.7756229105  0.1319464382
 C -1.9606329573 -1.9140275476 -1.3734843711
 C -3.2100316054 -1.8020103283 -0.7459338070
 H  3.9798734750  0.1972810642  2.0232538334
 H  1.7808983324 -0.5506721541  0.3977016359
 H  1.8305158411  1.5576579579  2.4539358685
 H  1.2325312820  1.4136665311 -1.0487884604
 H  1.2811311802  2.4556194807  0.3832002764
 H -1.0801309659  2.7517738067  1.6474630987
 H  0.0111036260 -1.1878057839 -1.5333257833
 H -3.2761478040  1.6805032703  1.5915567386
 H -1.8037161789 -2.7232282191 -2.0337239812
 H -4.4323623935 -0.6690477340  0.5747373252
 H -3.9947125577 -2.4398497236 -0.9958609131
 H  1.2088766282  0.0609584171  2.5488314514
27
step 23
 O  4.4819882333  0.4976223538  1.2272938576
 O  3.8175965830  1.2423650850 -0.7965251389
 N  2.0504728877  0.5696452415  2.1809793511
 N -2.4297892634  1.1882944357  1.2710256357
 C  2.0281802118  0.4789654340  0.6957541773
 C  3.4904612894  0.7795167408  0.3020902472
 C  1.0491870581  1.4692387794 -0.0164961322
 C -0.3998950988  1.1394551801  0.3324556809
 C -1.2034602498  1.8604934660  1.1097269183
 C -1.1579266252  0.0045847170 -0.1733556269
 C -2.4413420449  0.1344344542  0.3649312405
 C -0.9342894508 -1.0707563365 -1.0704192398
 C -3.4510532751 -0.7770127542  0.1336431397
 C -1.9599497750 -1.9168475180 -1.3744206352
 C -3.2112997754 -1.8040671591 -0.7466973308
 H  3.9811487429  0.1936741309  2.0247894000
 H  1.7780524224 -0.5528207046  0.3943854947
 H  1.8356970365  1.5558769808  2.4629887721
 H  1.2348386761  1.4031026948 -1.0489050473
 H  1.2753395506  2.4548225048  0.3874786319
 H -1.0715437600  2.7536384081  1.6410968606
 H  0.0130649804 -1.1949139490 -1.5332048541
 H -3.2797532237  1.6734136182  1.5820604254
 H -1.8158884711 -2.7266174231 -2.0411290428
 H -4.4298133644 -0.6630584924  0.5830977080
 H -3.9927278367 -2.4522997269 -0.9965844689
 H  1.2140658090  0.0610445873  2.5503844920
27
step 24
 O  4.4815741572  0.4968653284  1.2263567841
 O  3.8169757613  1.2476480659 -0.7933657347
 N  2.0494302480  0.5703478515  2.1797245694
 N -2.4301018228  1.1840282680  1.2727908689
 C  2.0303436027  0.4755400242  0.6962945216
 C  3.4932436001  0.7805926042  0.3038604774
 C  1.0480325201  1.4709828009 -0.0159243072
 C -0.3999710613  1.1381901900  0.3318945988
 C -1.2010648706  1.8580163293  1.1075720636
 C -1.1560556845  0.0044070840 -0.1721956922
 C -2.4391648251  0.1325172291  0.3663279884
 C -0.9340473044 -1.0739386526 -1.0711565073