24
step 0
 O  4.2440584141  2.6071939073  0.3436448122
 O -3.0893580035 -2.3348612647  1.1603852059
 O  3.6035662344  2.0489375813 -1.7647883556
 N  2.0384823455  1.7202092985  1.4619211731
 C  2.2412254473  1.1700919136  0.0932977053
 C  3.4118442393  1.9816439334 -0.5662209212
 C  0.9816788212  1.1675639798 -0.8177869323
 C -0.1254060654  0.2531792205 -0.2918724737
 C -1.2311606600  0.7687299173  0.3679055141
 C -0.0384469286 -1.1311573493 -0.4525404339
 C -2.2281143765 -0.0610990190  0.8591688249
 C -1.0200418106 -1.9705493484  0.0297814608
 C -2.1291537711 -1.4377942309  0.6941386124
 H  1.3752133115  2.5083152017  1.4021144447
 H  2.5957066613  0.1427244042  0.2109046300
 H  3.7967638096  2.4405041598  1.2121419782
 H  1.2952930113  0.8486833711 -1.8100973472
 H  0.6088973516  2.1860928813 -0.9050085845
 H -1.3279721794  1.8394698844  0.4994049901
 H  0.8135992487 -1.5548774182 -0.9702778521
 H -3.0850450628  0.3599958330  1.3685207226
 H -0.9504096129 -3.0422387915 -0.0991039664
 H -3.7874562851 -1.7759287825  1.5822988895
 H  1.5622359029  1.0091707609  2.0360679285
24
step 1
 O  4.2465662958  2.6067183181  0.3445817868
 O -3.0896623106 -2.3302808326  1.1652850929
 O  3.6064552310  2.0484858909 -1.7648151607
 N  2.0422870185  1.7166181446  1.4640015463
 C  2.2387476515  1.1719834303  0.0915994675
 C  3.4096033090  1.9836582403 -0.5675886794
 C  0.9831806671  1.1653349436 -0.8191052148
 C -0.1227608763  0.2510588701 -0.2924516916
 C -1.2341743929  0.7695093097  0.3677161137
 C -0.0371940488 -1.1367298511 -0.4539860862
 C -2.2263497553 -0.0624371050  0.8563525996
 C -1.0190917189 -1.9729033439  0.0303564898
 C -2.1252879080 -1.4396800546  0.6944472593
 H  1.3634898510  2.5069220076  1.3973880941
 H  2.5965275530  0.1406632445  0.2191931615
 H  3.8027015940  2.4343022431  1.2111641387
 H  1.2978539638  0.8456399550 -1.8088909231
 H  0.6063516187  2.1928628645 -0.9185109940
 H -1.3301981340  1.8560889922  0.5109590526
 H  0.8184957687 -1.5569653735 -0.9736241010
 H -3.0969377329  0.3515142298  1.3639966312
 H -0.9579922374 -3.0443626721 -0.0983764414
 H -3.7847384557 -1.7691827422  1.5805500635
 H  1.5681270912  1.0151813346  2.0437578201
24
step 2
 O  4.2490648101  2.6062359762  0.3454846602
 O -3.0899353374 -2.3257303272  1.1701615069
 O  3.6093372704  2.0480362821 -1.7648503580
 N  2.0460170765  1.7131809140  1.4660363411
 C  2.2363187378  1.1738027962  0.0899459564
 C  3.4073936884  1.9856762691 -0.5689222921
 C  0.9846305686  1.1632017570 -0.8204331987
 C -0.1201676153  0.2489261273 -0.2930127246
 C -1.2371327595  0.7704202635  0.3675241179
 C -0.0359135347 -1.1422342263 -0.4554395167
 C -2.2246685252 -0.0637605773  0.8535809167
 C -1.0181521095 -1.9752790689  0.0309322916
 C -2.1214462167 -1.4415536259  0.6947613134
 H  1.3528632446  2.5044925326  1.3929269771
 H  2.5971760647  0.1391420363  0.2271445951
 H  3.8084725628  2.4280864328  1.2104978612
 H  1.3005020266  0.8424657757 -1.8078542326
 H  0.6041835127  2.1985517557 -0.9317670314
 H -1.3322642160  1.8708809907  0.5221442148
 H  0.8231319190 -1.5590312552 -0.9768351278
 H -3.1081022302  0.3428589994  1.3591421175
 H -0.9654532546 -3.0465710298 -0.0976755815
 H -3.7823914364 -1.7621012043  1.5790289182
 H  1.5737653272  1.0205294352  2.0516353640
24
step 3
 O  4.2515456769  2.6057396742  0.3463245643
 O -3.0901501651 -2.3212328107  1.1749979852
 O  3.6122079252  2.0475904541 -1.7649015194
 N  2.0496096062  1.7100245025  1.4679861394
 C  2.2339830638  1.1754878643  0.0883790219
 C  3.4052437564  1.9877022178 -0.5701910554
 C  0.9859835695  1.1612428403 -0.8217835162
 C -0.1176735447  0.2467672757 -0.2935389250
 C -1.2399834643  0.7715669751  0.3673263789
 C -0.0345791325 -1.1476087182 -0.4569084129
 C -2.2231441778 -0.0650595186  0.8508903221
 C -1.0172318720 -1.9777003350  0.0315097747
 C -2.1176493657 -1.4434040854  0.6950866075
 H  1.3442498847  2.5002182412  1.3889833131
 H  2.5975078540  0.1386192377  0.2344396305
 H  3.8139450139  2.4218456251  1.2103964842
 H  1.3033182057  0.8390424965 -1.8071304167
 H  0.6027078674  2.2022533265 -0.9445438048
 H -1.3340484836  1.8823659919  0.5326254829
 H  0.8272776497 -1.5610653632 -0.9797939498
 H -3.1179010356  0.3339008956  1.3536795857
 H -0.9726825165 -3.0489359253 -0.0970241690
 H -3.7807205373 -1.7543908507  1.5779196795
 H  1.5789529236  1.0246473602  2.0598470837
24
step 4
 O  4.2539986368  2.6052220753  0.3470793820
 O -3.0902880798 -2.3168054845  1.1797833197
 O  3.6150627809  2.0471500068 -1.7649750276
 N  2.0530131973  1.7072398658  1.4698210806
 C  2.2317806806  1.1769892184  0.0869375539
 C  3.4031807304  1.9897394735 -0.5713668786
 C  0.9872037840  1.1595139818 -0.8231704557
 C -0.1153229721  0.2445702141 -0.2940150272
 C -1.2426756409  0.7730166140  0.3671180823
 C -0.0331699445 -1.1527942582 -0.4583976626
 C -2.2218350107 -0.0663286343  0.8483083090
 C -1.0163382104 -1.9801905354  0.0320890520
 C -2.1139177083 -1.4452196257  0.6954291128
 H  1.3383094448  2.4936031691  1.3857835948
 H  2.5974200785  0.1394245269  0.2407841417
 H  3.8190340059  2.4155817326  1.2110176053
 H  1.3063657590  0.8352734392 -1.8068137142
 H  0.6021509171  2.2033063640 -0.9566284950
 H -1.3354688448  1.8894896388  0.5421145847
 H  0.8307513200 -1.5630746147 -0.9824116813
 H -3.1258386648  0.3245821573  1.3474186181
 H -0.9795749892 -3.0515099492 -0.0964415765
 H -3.7799087734 -1.7458567241  1.5773303107
 H  1.5835894559  1.0271285416  2.0684373593
24
step 5
 O  4.2564109560  2.6046754278  0.3477356787
 O -3.0903412732 -2.3124576334  1.1845129620
 O  3.6178974002  2.0467164436 -1.7650756785
 N  2.0561894924  1.7048757309  1.4715248131
 C  2.2297458365  1.1782734680  0.0856557799
 C  3.4012303186  1.9917903663 -0.5724251120
 C  0.9882665728  1.1580439984 -0.8246096311
 C -0.1131565532  0.2423252828 -0.2944274325
 C -1.2451613085  0.7747950689  0.3668920837
 C -0.0316725233 -1.1577353975 -0.4599082680
 C -2.2207793212 -0.0675673993  0.8458511262
 C -1.0154760841 -1.9827719934  0.0326692039
 C -2.1102709075 -1.4469873762  0.6957947355
 H  1.3353951354  2.4844990104  1.3835148670
 H  2.5968627355  0.1417271610  0.2459224193
 H  3.8237133905  2.4093167712  1.2123956494
 H  1.3096839015  0.8310901174 -1.8069335414
 H  0.6026334908  2.2013386356 -0.9678427641
 H -1.3364823241  1.8916618800  0.5503856838
 H  0.8334356221 -1.5650861761 -0.9846367282
 H -3.1316035078  0.3149271759  1.3402742870
 H -0.9860319878 -3.0543225479 -0.0959429073
 H -3.7799784790 -1.7364376786  1.5772728646
 H  1.5877013121  1.0277712457  2.0773106530
24
step 6
 O  4.2587674903  2.6040914631  0.3482892371
 O -3.0903135110 -2.3081899974  1.1891891608
 O  3.6207072653  2.0462911823 -1.7652063432
 N  2.0591146282  1.7029371632  1.4730960180
 C  2.2279059828  1.1793250980  0.0845618802
 C  3.3994164720  1.9938559743 -0.5733452291
 C  0.9891597048  1.1568327543 -0.8261171232
 C -0.1112106331  0.2400259631 -0.2947644885
 C -1.2473966614  0.7768854127  0.3666384912
 C -0.0300822890 -1.1623812753 -0.4614366464
 C -2.2199925476 -0.0687796274  0.8435227373
 C -1.0146478023 -1.9854651641  0.0332481254
 C -2.1067276409 -1.4486935819  0.6961891026
 H  1.3355303652  2.4731102373  1.3823151603
 H  2.5958449007  0.1455199669  0.2496478099
 H  3.8280174060  2.4030963680  1.2144358893
 H  1.3132844495  0.8264556819 -1.8074480232
 H  0.6041630795  2.1962866677 -0.9780545652
 H -1.3370823299  1.8887672405  0.5572864634
 H  0.8352865303 -1.5671480722 -0.9864598103
 H -3.1350916075  0.3050446114  1.3322747767
 H -0.9919620929 -3.0573791548 -0.0955385128
 H -3.7807836483 -1.7262178285  1.5776624509
 H  1.5914460891  1.0265865410  2.0862223876
24
step 7
 O  4.2610513386  2.6034615435  0.3487441229
 O -3.0902186211 -2.3039957235  1.1938198439
 O  3.6234877170  2.0458755721 -1.7653677018
 N  2.0617811677  1.7013882289  1.4745472316
 C  2.2262812293  1.1801470384  0.0836770237
 C  3.3977612170  1.9959359945 -0.5741113539
 C  0.9898836634  1.1558509985 -0.8277080362
 C -0.1095166288  0.2376694045 -0.2950167576
 C -1.2493430104  0.7792277924  0.3663442914
 C -0.0284041588 -1.1666866124 -0.4629743777
 C -2.2194662625 -0.0699726628  0.8413147996
 C -1.0138528073 -1.9882877281  0.0338224860
 C -2.1033053803 -1.4503240916  0.6966173554
 H  1.3384050042  2.4599787279  1.3822680088
 H  2.5944362037  0.1506176119  0.2518103674
 H  3.8320316035  2.3969885246  1.2169311739
 H  1.3171517554  0.8213650740 -1.8082480007
 H  0.6066324864  2.1883978717 -0.9871873226
 H -1.3372956215  1.8811628771  0.5627466629
 H  0.8363347315 -1.5693268194 -0.9879145036
 H -3.1364139755  0.2951226856  1.3235599380
 H -0.9972818915 -3.0606631874 -0.0952338946
 H -3.7820352094 -1.7154109982  1.5783349138
 H  1.5950908380  1.0237708927  2.0948018115
24
step 8
 O  4.2632449759  2.6027770527  0.3491105321
 O -3.0900772335 -2.2998626291  1.1984165815
 O  3.6262339108  2.0454709148 -1.7655580678
 N  2.0642000214  1.7001580826  1.4759013769
 C  2.2248842164  1.1807600182  0.0830148629
 C  3.3962845480  1.9980286882 -0.5747126246
 C  0.9904511461  1.1550418479 -0.8293945906
 C -0.1081004561  0.2352567435 -0.2951772701
 C -1.2509672996  0.7817205104  0.3659929417
 C -0.0266523411 -1.1706127412 -0.4645084290
 C -2.2191690246 -0.0711563377  0.8392075976
 C -1.0130876366 -1.9912536456  0.0343878013
 C -2.1000202251 -1.4518651144  0.6970839677
 H  1.3433927218  2.4459477057  1.3834014933
 H  2.5927635942  0.1566687284  0.2523211565
 H  3.8358752627  2.3910777454  1.2195975238
 H  1.3212457757  0.8158421048 -1.8091707805
 H  0.6098245235  2.1782167222 -0.9952261651
 H -1.3371795054  1.8696680439  0.5667846630
 H  0.8366794213 -1.5717022774 -0.9890732359
 H -3.1358876716  0.2854185155  1.3143714932
 H -1.0019166967 -3.0641405214 -0.0950299286
 H -3.7833525404 -1.7043223165  1.5790784212
 H  1.5989702039  1.0196524419  2.1026009012
24
step 9
 O  4.2653316594  2.6020299674  0.3494019015
 O -3.0899125788 -2.2957761918  1.2029921494
 O  3.6289408142  2.0450784863 -1.7657733197
 N  2.0664009580  1.6991501465  1.4771868591
 C  2.2237204152  1.1812006146  0.0825814935
 C  3.3950043465  2.0001308985 -0.5751433849
 C  0.9908856872  1.1543241698 -0.8311840796
 C -0.1069819829  0.2327931660 -0.2952417660
 C -1.2522422563  0.7842231168  0.3655640694
 C -0.0248493089 -1.1741286784 -0.4660218468
 C -2.2190492391 -0.0723417597  0.8371719476
 C -1.0123460533 -1.9943722615  0.0349386102
 C -2.0968867606 -1.4533041786  0.6975925990
 H  1.3495990950  2.4320962104  1.3856930732
 H  2.5910030449  0.1631826498  0.2511527165
 H  3.8396790952  2.3854556881  1.2221210709
 H  1.3255076895  0.8099339911 -1.8100213944
 H  0.6134241305  2.1665514425 -1.0022201300
 H -1.3368187158  1.8555359166  0.5695104459
 H  0.8364748051 -1.5743599932 -0.9900389345
 H -3.1340089092  0.2762415136  1.3050345096
 H -1.0058013062 -3.0677656240 -0.0949233286
 H -3.7843286774 -1.6932963172  1.5796712275
 H  1.6034346848  1.0146244577  2.1091571175
24
step 10
 O  4.2672968715  2.6012135061  0.3496318456
 O -3.0897462255 -2.2917226245  1.2075582125
 O  3.6316032538  2.0446995547 -1.7660069506
 N  2.0684299529  1.6982544027  1.4784321377
 C  2.2227889170  1.1815178357  0.0823758541
 C  3.3939362927  2.0022381366 -0.5754032016
 C  0.9912192336  1.1535984345 -0.8330771510
 C -0.1061745089  0.2302876666 -0.2952089290
 C -1.2531463566  0.7865632295  0.3650336740
 C -0.0230240277 -1.1772121924 -0.4674948727
 C -2.2190402130 -0.0735398964  0.8351721136
 C -1.0116193454 -1.9976475648  0.0354687504
 C -2.0939179154 -1.4546311910  0.6981459776
 H  1.3559544829  2.4196315849  1.3890818324
 H  2.5893656409  0.1695720267  0.2483351693
 H  3.8435625124  2.3802100656  1.2242075270
 H  1.3298671960  0.8037040897 -1.8105981824
 H  0.6170407273  2.1544137580 -1.0082784044
 H -1.3363204934  1.8403872250  0.5711205681
 H  0.8359103247 -1.5773815345 -0.9909329374
 H -3.1314053168  0.2679304588  1.2959292141
 H -1.0088807570 -3.0714884426 -0.0949072817
 H -3.7845956610 -1.6826623725  1.5799177537
 H  1.6087993632  1.0090787722  2.1140568001
24
step 11
 O  4.2691295771  2.6003227464  0.3498114098
 O -3.0895944591 -2.2876915412  1.2121234907
 O  3.6342160104  2.0443353963 -1.7662502386
 N  2.0703421569  1.6973626899  1.4796605182
 C  2.2220837824  1.1817681468  0.0823905174
 C  3.3930937585  2.0043447178 -0.5754966951
 C  0.9914884979  1.1527556129 -0.8350669053
 C -0.1056842949  0.2277525081 -0.2950805965
 C -1.2536638437  0.7885492527  0.3643754006
 C -0.0212096091 -1.1798507820 -0.4689063786
 C -2.2190674343 -0.0747599318  0.8331696976
 C -1.0108967611 -2.0010776834  0.0359717027
 C -2.0911248109 -1.4558394588  0.6987458128
 H  1.3613605268  2.4097333149  1.3934886234
 H  2.5880778117  0.1752116345  0.2439478473
 H  3.8476140297  2.3754137513  1.2256263040
 H  1.3342505182  0.7972236973 -1.8107191521
 H  0.6202437156  2.1429240901 -1.0135583679
 H -1.3358057839  1.8260789704  0.5718787772
 H  0.8351864038 -1.5808335859 -0.9918802269
 H -3.1287659121  0.2608243166  1.2874530297
 H -1.0111110031 -3.0752611481 -0.0949721661
 H -3.7838794088 -1.6726864400  1.5796773519
 H  1.6153006699  1.0033481307  2.1169890871
24
step 12
 O  4.2708231393  2.5993551185  0.3499469955
 O -3.0894657249 -2.2836779259  1.2166925747
 O  3.6367739417  2.0439873099 -1.7664925326
 N  2.0721908669  1.6963858223  1.4808857785
 C  2.2215959520  1.1820091303  0.0826127669
 C  3.3924876910  2.0064439116 -0.5754331802
 C  0.9917301010  1.1516891844 -0.8371391460
 C -0.1055101733  0.2252024194 -0.2948619362
 C -1.2537850409  0.7899905032  0.3635634054
 C -0.0194406611 -1.1820424606 -0.4702354578
 C -2.2190576575 -0.0760074488  0.8311282626
 C -1.0101660375 -2.0046546575  0.0364409626
 C -2.0885166133 -1.4569265450  0.6993927282
 H  1.3648797839  2.4033604420  1.3988411915
 H  2.5873565186  0.1795106471  0.2381072472
 H  3.8518771481  2.3711157926  1.2262435874
 H  1.3385881727  0.7905638166 -1.8102458202
 H  0.6226118368  2.1331806142 -1.0182442050
 H -1.3353947632  1.8144885094  0.5720766465
 H  0.8344884058 -1.5847568693 -0.9929935728
 H -3.1267520343  0.2552284019  1.2799750149
 H -1.0124594104 -3.0790438639 -0.0951062530
 H -3.7820379787 -1.6635349085  1.5788829210
 H  1.6230652945  0.9976622065  2.1177847702
24
step 13
 O  4.2723758021  2.5983107164  0.3500391662
 O -3.0893593088 -2.2796832863  1.2212654140
 O  3.6392721037  2.0436566343 -1.7667216427
 N  2.0740151953  1.6952694950  1.4821092510
 C  2.2213155650  1.1822924307  0.0830257869
 C  3.3921264998  2.0085280727 -0.5752261345
 C  0.9919749347  1.1503092014 -0.8392737881
 C -0.1056432837  0.2226536245 -0.2945615683
 C -1.2535070863  0.7907237480  0.3625768497
 C -0.0177506794 -1.1837962277 -0.4714629663
 C -2.2189487021 -0.0772826257  0.8290181420
 C -1.0094139845 -2.0083644971  0.0368704056
 C -2.0861004026 -1.4578948465  0.7000862083
 H  1.3659280999  2.4010625136  1.4050968313
 H  2.5873818997  0.1819909127  0.2309533999
 H  3.8563429154  2.3673355422  1.2260409888
 H  1.3428216864  0.7837877686 -1.8091018807
 H  0.6237921852  2.1261037680 -1.0225176517
 H -1.3351867129  1.8072221275  0.5719746338
 H  0.8339622502 -1.5891562211 -0.9943586318
 H -3.1258998847  0.2513796600  1.2737882365
 H -1.0129049901 -3.0828086864 -0.0952963063
 H -3.7790808098 -1.6552534991  1.5775486483
 H  1.6320929156  0.9921194370  2.1164380614
24
step 14
 O  4.2737907092  2.5971923869  0.3500824375
 O -3.0892653020 -2.2757159486  1.2258374404
 O  3.6417058509  2.0433447670 -1.7669243118
 N  2.0758308240  1.6940045419  1.4833189868
 C  2.2212343329  1.1826571030  0.0836097229
 C  3.3920159550  2.0105887286 -0.5748925280
 C  0.9922427238  1.1485559232 -0.8414470114
 C -0.1060669905  0.2201228505 -0.2941916018
 C -1.2528349230  0.7906409942  0.3614050792
 C -0.0161698378 -1.1851321326 -0.4725728029
 C -2.2186982202 -0.0785787785  0.8268206060
 C -1.0086270782 -2.0121874935  0.0372546103
 C -2.0838810735 -1.4587518065  0.7008245536
 H  1.3644071417  2.4028535343  1.4122530349
 H  2.5882716722  0.1823589164  0.2226377442
 H  3.8609495592  2.3640606763  1.2251182519
 H  1.3469085843  0.7769454700 -1.8072847857
 H  0.6235583002  2.1222845975 -1.0265264395
 H -1.3352378042  1.8053060330  0.5717355494
 H  0.8336953555 -1.5939932766 -0.9960222037
 H -3.1265327158  0.2494168329  1.2690686786
 H -1.0124383474 -3.0865415887 -0.0955280208
 H -3.7751685628 -1.6477625294  1.5757672564
 H  1.6422533573  0.9866760632  2.1131109054
24
step 15
 O  4.2750754688  2.5960055801  0.3500660735
 O -3.0891658473 -2.2717904423  1.2304002799
 O  3.6440709116  2.0430531787 -1.7670867444
 N  2.0776276177  1.6926278123  1.4844913573
 C  2.2213474780  1.1831247155  0.0843423857
 C  3.3921590936  2.0126166139 -0.5744520647
 C  0.9925381451  1.1464095786 -0.8436334499
 C -0.1067570687  0.2176264927 -0.2937675353
 C -1.2517820356  0.7897098289  0.3600515898
 C -0.0147234755 -1.1860808834 -0.4735527549
 C -2.2182894746 -0.0798816593  0.8245304816
 C -1.0077920086 -2.0160987557  0.0375891116
 C -2.0818612742 -1.4595096866  0.7016048618
 H  1.3607240427  2.4081981176  1.4203404322
 H  2.5900625557  0.1805566645  0.2133155234
 H  3.8655890104  2.3612496036  1.2236797825
 H  1.3508251098  0.7700700601 -1.8048690388
 H  0.6218523713  2.1218764229 -1.0303590741
 H -1.3355438619  1.8089597599  0.5713734531
 H  0.8337060344 -1.5991831075 -0.9979855529
 H -3.1287035508  0.2493618309  1.2658501144
 H -1.0110613791 -3.0902421340 -0.0957862684
 H -3.7705937659 -1.6408692295  1.5736976389
 H  1.6532985227  0.9811539471  2.1081195304
24
step 16
 O  4.2762412941  2.5947579445  0.3499758162
 O -3.0890376158 -2.2679259449  1.2349430488
 O  3.6463634479  2.0427834150 -1.7671951620
 N  2.0793747107  1.6912129943  1.4855948938
 C  2.2216547615  1.1836973419  0.0851994600
 C  3.3925561433  2.0146016916 -0.5739263435
 C  0.9928497064  1.1438932416 -0.8458077419
 C -0.1076822074  0.2151800398 -0.2933079960
 C -1.2503703729  0.7879782670  0.3585348989
 C -0.0134314202 -1.1866829171 -0.4743948229
 C -2.2177326593 -0.0811697662  0.8221565821
 C -1.0068961733 -2.0200689481  0.0378705889
 C -2.0800413649 -1.4601848995  0.7024230307
 H  1.3556900128  2.4161165507  1.4294008775
 H  2.5927032638  0.1767791012  0.2031442612
 H  3.8701199448  2.3588380658  1.2220059968
 H  1.3545662330  0.7631774222 -1.8020006246
 H  0.6187982682  2.1245640565 -1.0340339872
 H -1.3360354670  1.8175448257  0.5707406396
 H  0.8339431084 -1.6045957868 -1.0002039742
 H -3.1321841061  0.2511168657  1.2640214337
 H -1.0087867909 -3.0939212606 -0.0960551647
 H -3.7657431603 -1.6342971427  1.5715436478
 H  1.6648892465  0.9752689542  2.1019026977
24
step 17
 O  4.2773018558  2.5934587028  0.3497964282
 O -3.0888552906 -2.2641437818  1.2394541516
 O  3.6485801206  2.0425370934 -1.7672363828
 N  2.0810302099  1.6898542583  1.4865956926
 C  2.2221602918  1.1843588747  0.0861542814
 C  3.3932044436  2.0165331647 -0.5733380374
 C  0.9931518185  1.1410678238 -0.8479452058
 C -0.1088047739  0.2127976878 -0.2928343586
 C -1.2486292107  0.7855621690  0.3568857353
 C -0.0123081716 -1.1869869668 -0.4750949985
 C -2.2170615043 -0.0824157621  0.8197199018
 C -1.0059281040 -2.0240651907  0.0380969927
 C -2.0784193796 -1.4607970296  0.7032737676
 H  1.3503402229  2.4253682463  1.4394602818
 H  2.5960611422  0.1714530597  0.1922876511
 H  3.8743860430  2.3567491207  1.2204120968
 H  1.3581426103  0.7562689499 -1.7988825673
 H  0.6146807474  2.1296215613 -1.0375061550
 H -1.3365882518  1.8297118698  0.5695594916
 H  0.8342953877 -1.6100628317 -1.0025924991
 H -3.1365033386  0.2544784134  1.2633471294
 H -1.0056374564 -3.0975970024 -0.0963178892
 H -3.7610445114 -1.6277312145  1.5695256270
 H  1.6766357017  0.9686804863  2.0949720738
24
step 18
 O  4.2782719502  2.5921178594  0.3495147382
 O -3.0885957425 -2.2604642094  1.2439233550
 O  3.6507181621  2.0423159022 -1.7671983724
 N  2.0825513063  1.6886473096  1.4874634348
 C  2.2228712160  1.1850792891  0.0871774167
 C  3.3940984126  2.0183994576 -0.5727101061
 C  0.9934095009  1.1380208405 -0.8500219360
 C -0.1100819606  0.2104922334 -0.2923701548
 C -1.2465932443  0.7826207210  0.3551417583
 C -0.0113637809 -1.1870481896 -0.4756525967
 C -2.2163261355 -0.0835887403  0.8172500385
 C -1.0048778070 -2.0280521678  0.0382676072
 C -2.0769910401 -1.4613674765  0.7041506734
 H  1.3457386195  2.4346527810  1.4505065264
 H  2.5999410120  0.1651820486  0.1809220833
 H  3.8782371833  2.3549058829  1.2191988883
 H  1.3615747118  0.7493372077 -1.7957528770
 H  0.6098976666  2.1360389959 -1.0406876440
 H -1.3370440237  1.8436810765  0.5674842489
 H  0.8346098170 -1.6153883779 -1.0050370608
 H -3.1410241713  0.2591642030  1.2635052670
 H -1.0016456172 -3.1012893085 -0.0965564532
 H -3.7569027815 -1.6208745722  1.5678484864
 H  1.6881474090  0.9610592588  2.0878479813
24
step 19
 O  4.2791661478  2.5907453347  0.3491226889
 O -3.0882422015 -2.2569029949  1.2483438543
 O  3.6527754729  2.0421215818 -1.7670707560
 N  2.0839018552  1.6876718800  1.4881770100
 C  2.2237956329  1.1858207647  0.0882363311
 C  3.3952295601  2.0201882747 -0.5720649964
 C  0.9935844035  1.1348522188 -0.8520148464
 C -0.1114671587  0.2082750761 -0.2919403630
 C -1.2443004314  0.7793290352  0.3533418153
 C -0.0106052014 -1.1869259228 -0.4760692727
 C -2.2155840570 -0.0846569457  0.8147807465
 C -1.0037370012 -2.0319933603  0.0383830591
 C -2.0757498430 -1.4619179330  0.7050463747
 H  1.3428164951  2.4427810301  1.4624780848
 H  2.6041118581  0.1586695175  0.1692425074
 H  3.8815507156  2.3532445469  1.2186030451
 H  1.3648846190  0.7423739868 -1.7928568471
 H  0.6048995137  2.1426800460 -1.0434743196
 H -1.3372351747  1.8575513552  0.5641680472
 H  0.8347147790 -1.6203636684 -1.0074091621
 H -3.1450390619  0.2648473096  1.2641336277
 H -0.9968519957 -3.1050143901 -0.0967513990
 H -3.7536358791 -1.6135078596  1.5666707498
 H  1.6990856661  0.9521650678  2.0809893245
24
step 20
 O  4.2799976688  2.5893502094  0.3486198523
 O -3.0877875848 -2.2534685330  1.2527138517
 O  3.6547507135  2.0419559040 -1.7668452608
 N  2.0850568295  1.6869781343  1.4887287389
 C  2.2249402220  1.1865443564  0.0892954269
 C  3.3965865696  2.0218866853 -0.5714239267
 C  0.9936407925  1.1316604888 -0.8539020965
 C -0.1129114453  0.2061562195 -0.2915706336
 C -1.2417900743  0.7758550659  0.3515213325
 C -0.0100378315 -1.1866812379 -0.4763478924
 C -2.2148911454 -0.0855905375  0.8123455130
 C -1.0024992820 -2.0358523179  0.0384452853
 C -2.0746872326 -1.4624688537  0.7059527034
 H  1.3422636614  2.4487967583  1.4752634787
 H  2.6083359207  0.1526357581  0.1574651478
 H  3.8842487183  2.3517255055  1.2187557743
 H  1.3680865440  0.7353796733 -1.7904170225
 H  0.6001306959  2.1484329047 -1.0457709626
 H -1.3370057354  1.8695562053  0.5593160021
 H  0.8344450120 -1.6247830796 -1.0095818106
 H -3.1478643749  0.2711910895  1.2648750426
 H -0.9913048447 -3.1087791450 -0.0968815001
 H -3.7514227671 -1.6055389739  1.5660812746
 H  1.7092080912  0.9419196930  2.0747313488
24
step 21
 O  4.2807776766  2.5879402238  0.3480148682
 O -3.0872361783 -2.2501602725  1.2570372616
 O  3.6566433717  2.0418206548 -1.7665160703
 N  2.0860046488  1.6865781151  1.4891262601
 C  2.2263080366  1.1872161218  0.0903165851
 C  3.3981554616  2.0234812453 -0.5708062748
 C  0.9935505406  1.1285315404 -0.8556639465
 C -0.1143650697  0.2041442079 -0.2912865108
 C -1.2391013563  0.7723437252  0.3497094210
 C -0.0096669778 -1.1863744605 -0.4764914281
 C -2.2142939994 -0.0863640431  0.8099737887
 C -1.0011602492 -2.0395938641  0.0384574865
 C -2.0737928731 -1.4630380771  0.7068609110
 H  1.3444679796  2.4520511714  1.4887089237
 H  2.6123954890  0.1477414409  0.1458261244
 H  3.8863077838  2.3503400756  1.2196584669
 H  1.3711775752  0.7283724433 -1.7886050893
 H  0.5959819240  2.1523308490 -1.0475101757
 H -1.3362261818  1.8782346082  0.5527173517
 H  0.8336648469 -1.6284598870 -1.0114446586
 H -3.1489196183  0.2778802851  1.2654156894
 H -0.9850590240 -3.1125764381 -0.0969235571
 H -3.7502762987 -1.5970307062  1.5660889428
 H  1.7183952736  0.9304566311  2.0692463843
24
step 22
 O  4.2815151075  2.5865216320  0.3473254596
 O -3.0866032267 -2.2469689344  1.2613233630
 O  3.6584537964  2.0417176175 -1.7660800850
 N  2.0867487539  1.6864424518  1.4893915234
 C  2.2278967453  1.1878120508  0.0912602061
 C  3.3999198333  2.0249581626 -0.5702290859
 C  0.9932966975  1.1255307173 -0.8572837492
 C -0.1157788490  0.2022459815 -0.2911126925
 C -1.2362722724  0.7689076236  0.3479274745
 C -0.0094990219 -1.1860628323 -0.4765020220
 C -2.2138242775 -0.0869583382  0.8076881713
 C -0.9997176204 -2.0431851297  0.0384240882
 C -2.0730550126 -1.4636397335  0.7077619079
 H  1.3494896733  2.4522424237  1.5026312554
 H  2.6161145416  0.1445256446  0.1345763782
 H  3.8877592662  2.3491112564  1.2211808640
 H  1.3741303849  0.7213955650 -1.7875200767
 H  0.5927566797  2.1536356946 -1.0486640536
 H -1.3348024115  1.8825257527  0.5442593007
 H  0.8322872101 -1.6312401958 -1.0129166919
 H -3.1477855423  0.2846459761  1.2655137448
 H -0.9781751911 -3.1163819267 -0.0968523686
 H -3.7500476482 -1.5881983455  1.5666276645
 H  1.7266536909  0.9181323326  2.0645378929
24
step 23
 O  4.2822170324  2.5850994158  0.3465769982
 O -3.0859125454 -2.2438785126  1.2655855070
 O  3.6601831952  2.0416485545 -1.7655370913
 N  2.0873091709  1.6865019464  1.4895570227
 C  2.2296974309  1.1883215633  0.0920866226
 C  3.4018611641  2.0263035125 -0.5697067086
 C  0.9928756191  1.1226980290 -0.8587486523
 C -0.1171054283  0.2004666643 -0.2910723506
 C -1.2333387762  0.7656223606  0.3461887265
 C -0.0095421362 -1.1857984624 -0.4763803291
 C -2.2134951030 -0.0873621231  0.8055025710
 C -0.9981713431 -2.0465963505  0.0383507201
 C -2.0724609189 -1.4642835015  0.7086465231
 H  1.3570586336  2.4494308791  1.5168340328
 H  2.6193742461  0.1433610699  0.1239739999
 H  3.8886801162  2.3480884014  1.2230822339
 H  1.3768894890  0.7145211983 -1.7871764947
 H  0.5906503505  2.1518885655 -1.0492498580
 H -1.3326808282  1.8818133459  0.5339288561
 H  0.8302867719 -1.6330138957 -1.0139553642
 H -3.1442410649  0.2912839191  1.2650184392
 H -0.9707191444 -3.1201529996 -0.0966409442
 H -3.7504606953 -1.5793773765  1.5675749052
 H  1.7340958790  0.9054935427  2.0604683820
24
step 24
 O  4.2828894173  2.5836777738  0.3457999095
 O -3.0851927614 -2.2408695535  1.2698392191
 O  3.6618336046  2.0416151898 -1.7648898426
 N  2.0877238559  1.6866532934  1.4896601191
 C  2.2316939355  1.1887496063  0.0927576965
 C  3.4039591785  2.0275034986 -0.5692505465
 C  0.9922978456  1.1200458656 -0.8600496699
 C -0.1183003889  0.1988093167 -0.2911865191
 C -1.2303339796  0.7625243084  0.3444982951
 C -0.0098064627 -1.1856266936 -0.4761252050
 C -2.2132993440 -0.0875729309  0.8034212649
 C -0.9965237131 -2.0498014037  0.0382442239
 C -2.0719973575 -1.4649742240  0.7095057795
 H  1.3665903040  2.4440337468  1.5311252704
 H  2.6221225699  0.1444257708  0.1142751445
 H  3.8891765548  2.3473371670  1.2250508961
 H  1.3793721039  0.7078495534 -1.7875044202
 H  0.5897389390  2.1469363871 -1.0493315968
 H -1.3298514799  1.8759444683  0.5218082963
 H  0.8277064228 -1.6337218985 -1.0145615622
 H -3.1382815887  0.2976667232  1.2638806785
 H -0.9627612835 -3.1238300949 -0.0962610121
 H -3.7511670582 -1.5709693739  1.5687786452
 H  1.7409049513  0.8932078085  2.0568118498
24
step 25
 O  4.2835380863  2.5822607449  0.3450264263
 O -3.0844730143 -2.2379229480  1.2741001191
 O  3.6634078408  2.0416191883 -1.7641440637
 N  2.0880488042  1.6867682322  1.4897367444
 C  2.2338626927  1.1891174399  0.0932383892
 C  3.4061922532  2.0285447519 -0.5688689134
 C  0.9915879461  1.1175586516 -0.8611810052
 C -0.1193231847  0.1972746658 -0.2914735628
 C -1.2272873002  0.7596095928  0.3428534498
 C -0.0103037188 -1.1855849779 -0.4757337782
 C -2.2132095836 -0.0875977101  0.8014387460
 C -0.9947794956 -2.0527780970  0.0381126843
 C -2.0716510781 -1.4657118700  0.7103311791
 H  1.3772245347  2.4367935887  1.5453348871
 H  2.6243786470  0.1476897362  0.1057244894
 H  3.8893640945  2.3469270302  1.2267539982
 H  1.3814738067  0.7015030919 -1.7883613986
 H  0.5899747485  2.1389409387 -1.0490189708
 H -1.3263504790  1.8652387005  0.5080674816
 H  0.8246566933 -1.6333591532 -1.0147800530
 H -3.1301210927  0.3037503170  1.2621562191
 H -0.9543761004 -3.1273402433 -0.0956838114
 H -3.7518089469 -1.5633784457  1.5700864896
 H  1.7472931266  0.8819729986  2.0533162905
24
step 26
 O  4.2841696817  2.5808528186  0.3442872582
 O -3.0837788979 -2.2350235127  1.2783820403
 O  3.6649094429  2.0416621334 -1.7633083842
 N  2.0883555169  1.6867058451  1.4898158049
 C  2.2361730048  1.1894621284  0.0934981155
 C  3.4085378507  2.0294146579 -0.5685669855
 C  0.9907834682  1.1151941822 -0.8621387650
 C -0.1201378838  0.1958608262 -0.2919487427
 C -1.2242235495  0.7568339871  0.3412440633
 C -0.0110462220 -1.1857022993 -0.4752019212
 C -2.2131797353 -0.0874529328  0.7995403473
 C -0.9929460350 -2.0555082464  0.0379654771
 C -2.0714092768 -1.4664918059  0.7111149872
 H  1.3878986911  2.4287077197  1.5593285432
 H  2.6262322693  0.1529154895  0.0985459522
 H  3.8893475530  2.3469188477  1.2278885657
 H  1.3830783198  0.6956163722 -1.7895539774
 H  0.5911882212  2.1283725825 -1.0484641875
 H -1.3222618494  1.8504907290  0.4929534781
 H  0.8213080108 -1.6319732091 -1.0146952557
 H -3.1201784736  0.3095743799  1.2600013987
 H -0.9456416255 -3.1306025131 -0.0948811032
 H -3.7520780176 -1.5569502335  1.5713715467
 H  1.7534625836  0.8724234609  2.0497628100
24
step 27
 O  4.2847924587  2.5794594153  0.3436086610
 O -3.0831291831 -2.2321628411  1.2826955880
 O  3.6663426141  2.0417455020 -1.7623942072
 N  2.0887246415  1.6863280359  1.4899153577
 C  2.2385877868  1.1898346275  0.0935117443
 C  3.4109729696  2.0301016914 -0.5683468419
 C  0.9899330019  1.1128868140 -0.8629194105
 C -0.1207136817  0.1945630014 -0.2926239058
 C -1.2211621086  0.7541145510  0.3396534276
 C -0.0120453532 -1.1859991239 -0.4745251171
 C -2.2131484152 -0.0871640793  0.7977037064
 C -0.9910333644 -2.0579776098  0.0378133291