24
step 0
 O  4.2440584141  2.6071939073  0.3436448122
 O -3.0893580035 -2.3348612647  1.1603852059
 O  3.6035662344  2.0489375813 -1.7647883556
 N  2.0384823455  1.7202092985  1.4619211731
 C  2.2412254473  1.1700919136  0.0932977053
 C  3.4118442393  1.9816439334 -0.5662209212
 C  0.9816788212  1.1675639798 -0.8177869323
 C -0.1254060654  0.2531792205 -0.2918724737
 C -1.2311606600  0.7687299173  0.3679055141
 C -0.0384469286 -1.1311573493 -0.4525404339
 C -2.2281143765 -0.0610990190  0.8591688249
 C -1.0200418106 -1.9705493484  0.0297814608
 C -2.1291537711 -1.4377942309  0.6941386124
 H  1.3752133115  2.5083152017  1.4021144447
 H  2.5957066613  0.1427244042  0.2109046300
 H  3.7967638096  2.4405041598  1.2121419782
 H  1.2952930113  0.8486833711 -1.8100973472
 H  0.6088973516  2.1860928813 -0.9050085845
 H -1.3279721794  1.8394698844  0.4994049901
 H  0.8135992487 -1.5548774182 -0.9702778521
 H -3.0850450628  0.3599958330  1.3685207226
 H -0.9504096129 -3.0422387915 -0.0991039664
 H -3.7874562851 -1.7759287825  1.5822988895
 H  1.5622359029  1.0091707609  2.0360679285
24
step 1
 O  4.2465669269  2.6067181984  0.3445820225
 O -3.0896623871 -2.3302796800  1.1652863260
 O  3.6064559580  2.0484857772 -1.7648151675
 N  2.0422879760  1.7166172409  1.4640020698
 C  2.2387470280  1.1719839063  0.0915990402
 C  3.4096027451  1.9836587471 -0.5675890236
 C  0.9831810451  1.1653343827 -0.8191055465
 C -0.1227602106  0.2510583366 -0.2924518374
 C -1.2341751513  0.7695095059  0.3677160660
 C -0.0371937335 -1.1367312534 -0.4539864500
 C -2.2263493112 -0.0624374418  0.8563518909
 C -1.0190914798 -1.9729039363  0.0303566346
 C -2.1252869351 -1.4396805292  0.6944473369
 H  1.3634869008  2.5069216570  1.3973869048
 H  2.5965277595  0.1406627258  0.2191952473
 H  3.8027030882  2.4343006824  1.2111638926
 H  1.2978546083  0.8456391892 -1.8088906195
 H  0.6063509781  2.1928645681 -0.9185143918
 H -1.3301986942  1.8560931743  0.5109619601
 H  0.8184970009 -1.5569658989 -0.9736249431
 H -3.0969407256  0.3515120954  1.3639954927
 H -0.9579941455 -3.0443632066 -0.0983762583
 H -3.7847377718 -1.7691810446  1.5805496234
 H  1.5681285737  1.0151828471  2.0437597552
24
step 2
 O  4.2490660699  2.6062357352  0.3454851234
 O -3.0899354826 -2.3257280295  1.1701639670
 O  3.6093387227  2.0480360554 -1.7648503736
 N  2.0460189729  1.7131791446  1.4660373766
 C  2.2363175030  1.1738037303  0.0899451129
 C  3.4073925683  1.9856772836 -0.5689229722
 C  0.9846313115  1.1632006587 -0.8204338648
 C -0.1201662969  0.2489250569 -0.2930130116
 C -1.2371342623  0.7704206875  0.3675240221
 C -0.0359128971 -1.1422370138 -0.4554402463
 C -2.2246676581 -0.0637612473  0.8535795105
 C -1.0181516339 -1.9752802591  0.0309325812
 C -2.1214442772 -1.4415545720  0.6947614702
 H  1.3528576153  2.5044915804  1.3929246662
 H  2.5971764354  0.1391411330  0.2271486813
 H  3.8084755105  2.4280833082  1.2104974461
 H  1.3005033378  0.8424642119 -1.8078536683
 H  0.6041823242  2.1985548973 -0.9317737630
 H -1.3322652988  1.8708889134  0.5221499364
 H  0.8231343178 -1.5590323008 -0.9768367780
 H -3.1081080326  0.3428546894  1.3591397590
 H -0.9654570408 -3.0465721194 -0.0976752218
 H -3.7823901623 -1.7620977237  1.5790280950
 H  1.5737682282  1.0205322942  2.0516392828
24
step 3
 O  4.2515475610  2.6057393085  0.3463252393
 O -3.0901503642 -2.3212293814  1.1750016625
 O  3.6122100999  2.0475901151 -1.7649015476
 N  2.0496124080  1.7100219354  1.4679876648
 C  2.2339812415  1.1754892234  0.0883777844
 C  3.4052420950  1.9877037418 -0.5701920553
 C  0.9859846533  1.1612412466 -0.8217845230
 C -0.1176715978  0.2467656619 -0.2935393448
 C -1.2399856844  0.7715676818  0.3673262339
 C -0.0345781588 -1.1476128586 -0.4569095123
 C -2.2231429272 -0.0650605164  0.8508882383
 C -1.0172311647 -1.9777021349  0.0315102095
 C -2.1176464710 -1.4434054972  0.6950868463
 H  1.3442420683  2.5002162571  1.3889800150
 H  2.5975083111  0.1386181942  0.2344455492
 H  3.8139493422  2.4218409288  1.2103960401
 H  1.3033202262  0.8390400736 -1.8071296707
 H  0.6027062984  2.2022574272 -0.9445537438
 H -1.3340500271  1.8823768828  0.5326338396
 H  0.8272810918 -1.5610669219 -0.9797963447
 H -3.1179093045  0.3338943418  1.3536758598
 H -0.9726881233 -3.0489376070 -0.0970236445
 H -3.7807188440 -1.7543854262  1.5779185747
 H  1.5789571287  1.0246512598  2.0598530752
24
step 4
 O  4.2540011381  2.6052215800  0.3470802479
 O -3.0902883131 -2.3168009414  1.1797882015
 O  3.6150656740  2.0471495569 -1.7649750737
 N  2.0530168582  1.7072365897  1.4698230661
 C  2.2317783044  1.1769909574  0.0869359543
 C  3.4031785492  1.9897415093 -0.5713681757
 C  0.9872051760  1.1595119475 -0.8231718135
 C -0.1153204313  0.2445680468 -0.2940155680
 C -1.2426785384  0.7730176726  0.3671178867
 C -0.0331686156 -1.1527997047 -0.4583991372
 C -2.2218334310 -0.0663299538  0.8483055742
 C -1.0163372780 -1.9801929627  0.0320896324
 C -2.1139138754 -1.4452214943  0.6954294385
 H  1.3383000933  2.4935996200  1.3857795052
 H  2.5974205191  0.1394236655  0.2407916484
 H  3.8190396221  2.4155754559  1.2110173097
 H  1.3063685476  0.8352700725 -1.8068128894
 H  0.6021491872  2.2033107927 -0.9566414559
 H -1.3354707733  1.8895025009  0.5421253224
 H  0.8307556367 -1.5630766818 -0.9824147350
 H -3.1258489306  0.3245732828  1.3474133334
 H -0.9795823332 -3.0515122703 -0.0964409036
 H -3.7799068765 -1.7458491451  1.5773290498
 H  1.5835948256  1.0271330797  2.0684455262
24
step 5
 O  4.2564140644  2.6046747963  0.3477367117
 O -3.0903415193 -2.3124519965  1.1845190348
 O  3.6179010067  2.0467158845 -1.7650757489
 N  2.0561939555  1.7048718460  1.4715272244
 C  2.2297429493  1.1782755335  0.0856538591
 C  3.4012276456  1.9917929169 -0.5724266780
 C  0.9882682338  1.1580415853 -0.8246113549
 C -0.1131534623  0.2423225493 -0.2944280798
 C -1.2451648322  0.7747965545  0.3668918352
 C -0.0316708164 -1.1577420902 -0.4599101235
 C -2.2207774772 -0.0675690346  0.8458477711
 C -1.0154749340 -1.9827750719  0.0326699297
 C -2.1102661589 -1.4469896895  0.6957951547
 H  1.3353849964  2.4844933315  1.3835102335
 H  2.5968630439  0.1417268442  0.2459312020
 H  3.8237201976  2.4093089094  1.2123956855
 H  1.3096875267  0.8310857064 -1.8069327478
 H  0.6026318495  2.2013426714 -0.9678585110
 H -1.3364845559  1.8916755842  0.5503984866
 H  0.8334406148 -1.5650887539 -0.9846403417
 H -3.1316152156  0.3149159139  1.3402672317
 H -0.9860409611 -3.0543255598 -0.0959421056
 H -3.7799765954 -1.7364277214  1.5772715715
 H  1.5877077152  1.0277759775  2.0773210735
24
step 6
 O  4.2587711916  2.6040906872  0.3482904123
 O -3.0903137497 -2.3081832864  1.1891964117
 O  3.6207115790  2.0462905158 -1.7652064446
 N  2.0591198289  1.7029327718  1.4730988211
 C  2.2279026349  1.1793274322  0.0845596862
 C  3.3994133411  1.9938590427 -0.5733470306
 C  0.9891615919  1.1568300251 -0.8261192331
 C -0.1112070434  0.2400226488 -0.2947652255
 C -1.2474007504  0.7768873991  0.3666381865
 C -0.0300801801 -1.1623891421 -0.4614388878
 C -2.2199905093 -0.0687815738  0.8435187940
 C -1.0146464425 -1.9854689231  0.0332489960
 C -2.1067220040 -1.4486963244  0.6961896237
 H  1.3355202161  2.4731018969  1.3823102705
 H  2.5958449613  0.1455205584  0.2496575013
 H  3.8280253180  2.4030869279  1.2144364115
 H  1.3132889828  0.8264501180 -1.8074473598
 H  0.6041617833  2.1962895614 -0.9780728231
 H -1.3370847822  1.8887806073  0.5573009692
 H  0.8352919888 -1.5671511749 -0.9864638814
 H -3.1351041635  0.3050309219  1.3322657424
 H -0.9919725648 -3.0573829073 -0.0955376043
 H -3.7807819515 -1.7262052968  1.5776612235
 H  1.5914534361  1.0265910317  2.0862350739
24
step 7
 O  4.2610556146  2.6034606126  0.3487454172
 O -3.0902188358 -2.3039879558  1.1938282623
 O  3.6234927303  2.0458748006 -1.7653678409
 N  2.0617870363  1.7013834273  1.4745503960
 C  2.2262774768  1.1801495833  0.0836746095
 C  3.3977576675  1.9959395835 -0.5741133544
 C  0.9898857328  1.1558480111 -0.8277105563
 C -0.1095125986  0.2376654936 -0.2950175661
 C -1.2493475956  0.7792303448  0.3663439256
 C -0.0284016247 -1.1666955709 -0.4629770082
 C -2.2194640990 -0.0699749168  0.8413102989
 C -1.0138512457 -1.9882922016  0.0338234996
 C -2.1032988875 -1.4503272440  0.6966179882
 H  1.3383955820  2.4599672894  1.3822631761
 H  2.5944359155  0.1506194372  0.2518205601
 H  3.8320405574  2.3969775312  1.2169322808
 H  1.3171572639  0.8213582487 -1.8082475385
 H  0.6066317759  2.1883989067 -0.9872077930
 H -1.3372982149  1.8811747539  0.5627624811
 H  0.8363404524 -1.5693304775 -0.9879189378
 H -3.1364267959  0.2951065704  1.3235487426
 H -0.9972937102 -3.0606677236 -0.0952329020
 H -3.7820337935 -1.7153957581  1.5783338061
 H  1.5950991071  1.0237747598  2.0948166769
24
step 8
 O  4.2632498040  2.6027759543  0.3491119248
 O -3.0900774128 -2.2998538185  1.1984261593
 O  3.6262396151  2.0454700408 -1.7655582503
 N  2.0642064881  1.7001529536  1.4759048786
 C  2.2248801190  1.1807627198  0.0830122848
 C  3.3962806241  1.9980327999 -0.5747147850
 C  0.9904533559  1.1550386493 -0.8293975489
 C -0.1080960485  0.2352522202 -0.2951781307
 C -1.2509723060  0.7817236772  0.3659925076
 C -0.0266493621 -1.1706227000 -0.4645114488
 C -2.2191667990 -0.0711588971  0.8392025662
 C -1.0130858801 -1.9912588712  0.0343889550
 C -2.1000129132 -1.4518686544  0.6970847237
 H  1.3433846454  2.4459328907  1.3833970404
 H  2.5927628841  0.1566720361  0.2523314194
 H  3.8358852254  2.3910652473  1.2195992404
 H  1.3212523162  0.8158339168 -1.8091705486
 H  0.6098245995  2.1782152779 -0.9952485440
 H -1.3371821672  1.8696773899  0.5668013969
 H  0.8366852255 -1.5717065404 -0.9890779562
 H -3.1359002338  0.2854000309  1.3143580028
 H -1.0019296914 -3.0641458752 -0.0950288749
 H -3.7833513998 -1.7043043195  1.5790774352
 H  1.5989794544  1.0196553814  2.1026177411
24
step 9
 O  4.2653370132  2.6020286871  0.3494033756
 O -3.0899127169 -2.2957663480  1.2030028815
 O  3.6289471995  2.0450775125 -1.7657735503
 N  2.0664079586  1.6991447531  1.4771906821
 C  2.2237160349  1.1812034266  0.0825788084
 C  3.3950000971  2.0001355341 -0.5751456652
 C  0.9908880004  1.1543207903 -0.8311875056
 C -0.1069772648  0.2327880154 -0.2952426592
 C -1.2522476042  0.7842269205  0.3655635560
 C -0.0248458707 -1.1741395392 -0.4660252517
 C -2.2190470024 -0.0723446239  0.8371664060
 C -1.0123441070 -1.9943782790  0.0349398996
 C -2.0968786707 -1.4533080808  0.6975934907
 H  1.3495927844  2.4320779628  1.3856893156
 H  2.5910018809  0.1631875763  0.2511626121
 H  3.8396900641  2.3854417600  1.2221233441
 H  1.3255153034  0.8099243520 -1.8100213724
 H  0.6134251289  2.1665470593 -1.0022441292
 H -1.3368213849  1.8555419032  0.5695277204
 H  0.8364805527 -1.5743649314 -0.9900438898
 H -3.1340208021  0.2762207815  1.3050186587
 H -1.0058152889 -3.0677718193 -0.0949222356
 H -3.7843277052 -1.6932756088  1.5796703151
 H  1.6034450571  1.0146262533  2.1091756092
24
step 10
 O  4.2673027211  2.6012120277  0.3496333869
 O -3.0897463211 -2.2917117535  1.2075700960
 O  3.6316103086  2.0446984844 -1.7660072319
 N  2.0684374359  1.6982487834  1.4784362737
 C  2.2227843156  1.1815207236  0.0823731183
 C  3.3939317708  2.0022432962 -0.5754055619
 C  0.9912216206  1.1535948815 -0.8330810737
 C -0.1061695498  0.2302818759 -0.2952098352
 C -1.2531519631  0.7865676560  0.3650330647
 C -0.0230201234 -1.1772238516 -0.4674986538
 C -2.2190379994 -0.0735430661  0.8351660741
 C -1.0116172127 -1.9976544152  0.0354701697
 C -2.0939090919 -1.4546354275  0.6981470186
 H  1.3559500832  2.4196101264  1.3890790629
 H  2.5893640434  0.1695785671  0.2483442710
 H  3.8435745112  2.3801948066  1.2242102336
 H  1.3298759066  0.8036929284 -1.8105982985
 H  0.6170426947  2.1544062016 -1.0083037743
 H -1.3363231255  1.8403893509  0.5711380626
 H  0.8359159246 -1.5773872384 -0.9909381075
 H -3.1314162867  0.2679076745  1.2959110224
 H -1.0088955254 -3.0714954936 -0.0949061698
 H -3.7845946633 -1.6826390852  1.5799168266
 H  1.6088110674  1.0090792910  2.1140765181
24
step 11
 O  4.2691358902  2.6003210525  0.3498130067
 O -3.0895945146 -2.2876796461  1.2121365242
 O  3.6342237219  2.0443342329 -1.7662505706
 N  2.0703500882  1.6973568564  1.4796649656
 C  2.2220790201  1.1817710901  0.0823877843
 C  3.3930890207  2.0043503999 -0.5754990967
 C  0.9914909388  1.1527518666 -0.8350713505
 C -0.1056791653  0.2277460676 -0.2950814970
 C -1.2536696235  0.7885542420  0.3643746710
 C -0.0212052402 -1.1798631330 -0.4689105216
 C -2.2190652574 -0.0747634084  0.8331631627
 C -1.0108944427 -2.0010854065  0.0359732445
 C -2.0911153013 -1.4558440004  0.6987470169
 H  1.3613578622  2.4097091734  1.3934871031
 H  2.5880758608  0.1752196248  0.2439557537
 H  3.8476270995  2.3753972807  1.2256292685
 H  1.3342603292  0.7972109619 -1.8107192877
 H  0.6202465890  2.1429134042 -1.0135849178
 H -1.3358083583  1.8260771765  0.5718962595
 H  0.8351918182 -1.5808401634 -0.9918856248
 H -3.1287758949  0.2607997524  1.2874326124
 H -1.0111263431 -3.0752690626 -0.0949710538
 H -3.7838781310 -1.6726607749  1.5796762966
 H  1.6153139669  1.0033473088  2.1170095303
24
step 12
 O  4.2708298820  2.5993531911  0.3499486372
 O -3.0894657438 -2.2836650085  1.2167067573
 O  3.6367822956  2.0439860573 -1.7664929129
 N  2.0721992314  1.6963797616  1.4808905400
 C  2.2215910858  1.1820121242  0.0826100864
 C  3.3924827972  2.0064501129 -0.5754355867
 C  0.9917325869  1.1516851959 -0.8371441336
 C -0.1055049438  0.2251953231 -0.2948628137
 C -1.2537909069  0.7899959423  0.3635625215
 C -0.0194358380 -1.1820553961 -0.4702399430
 C -2.2190555093 -0.0760112342  0.8311212252
 C -1.0101635316 -2.0046632907  0.0364426181
 C -2.0885064674 -1.4569313623  0.6993941098
 H  1.3648783685  2.4033344282  1.3988411496
 H  2.5873543552  0.1795197644  0.2381135931
 H  3.8518913362  2.3710982424  1.2262466067
 H  1.3385990694  0.7905494746 -1.8102458202
 H  0.6226154344  2.1331671450 -1.0182718172
 H -1.3353972883  1.8144832588  0.5720939986
 H  0.8344936468 -1.5847644401 -0.9929992421
 H -3.1267611662  0.2552024040  1.2799525831
 H -1.0124750994 -3.0790526465 -0.0951051561
 H -3.7820361383 -1.6635071088  1.5788816157
 H  1.6230804717  0.9976600274  2.1178053957
24
step 13
 O  4.2723829404  2.5983085376  0.3500408417
 O -3.0893592939 -2.2796693491  1.2212807443
 O  3.6392810843  2.0436552968 -1.7667220657
 N  2.0740239932  1.6952631761  1.4821143301
 C  2.2213106481  1.1822954850  0.0830232040
 C  3.3921215123  2.0085347882 -0.5752285125
 C  0.9919774670  1.1503048946 -0.8392793305
 C -0.1056380233  0.2226458706 -0.2945624070
 C -1.2535129504  0.7907294724  0.3625757678
 C -0.0177454208 -1.1838096420 -0.4714677692
 C -2.2189465547 -0.0772867215  0.8290105864
 C -1.0094112866 -2.0083740738  0.0368721649
 C -2.0860896722 -1.4578999107  0.7000877813
 H  1.3659272238  2.4010356329  1.4050984756
 H  2.5873797183  0.1820006979  0.2309578618
 H  3.8563582637  2.3673170483  1.2260438607
 H  1.3428336379  0.7837718052 -1.8091015676
 H  0.6237962141  2.1260881430 -1.0225462834
 H -1.3351892266  1.8072144018  0.5719918552
 H  0.8339673700 -1.5891649082 -0.9943646394
 H -3.1259084810  0.2513526373  1.2737640844
 H -1.0129208002 -3.0828183425 -0.0952952384
 H -3.7790781319 -1.6552238187  1.5775469793
 H  1.6321102605  0.9921159064  2.1164583233
24
step 14
 O  4.2737982095  2.5971899396  0.3500841337
 O -3.0892652530 -2.2757009960  1.2258539158
 O  3.6417154412  2.0433433491 -1.7669247684
 N  2.0758400632  1.6939979274  1.4833243839
 C  2.2212294151  1.1826602393  0.0836072780
 C  3.3920109381  2.0105959514 -0.5748948479
 C  0.9922453116  1.1485512021 -0.8414531134
 C -0.1060617655  0.2201144416 -0.2941923885
 C -1.2528406967  0.7906467993  0.3614037484
 C -0.0161641698 -1.1851459240 -0.4725778947
 C -2.2186960310 -0.0785831848  0.8268125103
 C -1.0086241814 -2.0121980415  0.0372564626
 C -2.0838698114 -1.4587570909  0.7008263316
 H  1.3644060203  2.4028268434  1.4122565686
 H  2.5882697042  0.1823688213  0.2226400415
 H  3.8609660926  2.3640413684  1.2251208028
 H  1.3469215476  0.7769278847 -1.8072839774
 H  0.6235623867  2.1222676503 -1.0265561096
 H -1.3352403668  1.8052972084  0.5717527285
 H  0.8337004305 -1.5940031963 -0.9960286304
 H -3.1265412174  0.2493892376  1.2690431579
 H -1.0124540485 -3.0865521281 -0.0955269920
 H -3.7751648147 -1.6477312002  1.5757651329
 H  1.6422731311  0.9866711807  2.1131302931
24
step 15
 O  4.2750832995  2.5960028488  0.3500677742
 O -3.0891657593 -2.2717744829  1.2304178959
 O  3.6440810934  2.0430516855 -1.7670872224
 N  2.0776373033  1.6926208708  1.4844970666
 C  2.2213426065  1.1831279618  0.0843401140
 C  3.3921541132  2.0126243349 -0.5744543009
 C  0.9925408012  1.1464043380 -0.8436401092
 C -0.1067519413  0.2176174357 -0.2937682595
 C -1.2517876317  0.7897154919  0.3600499573
 C -0.0147174304 -1.1860949563 -0.4735581041
 C -2.2182871939 -0.0798863729  0.8245218210
 C -1.0077889035 -2.0161102962  0.0375910457
 C -2.0818495333 -1.4595151680  0.7016068577
 H  1.3607219862  2.4081725651  1.4203460672
 H  2.5900610461  0.1805661178  0.2133154162
 H  3.8656067267  2.3612295960  1.2236818929
 H  1.3508390349  0.7700508615 -1.8048675672
 H  0.6218561084  2.1218590701 -1.0303898352
 H -1.3355465413  1.8089513724  0.5713907082
 H  0.8337111463 -1.5991943571 -0.9979924800
 H -3.1287124448  0.2493341320  1.2658235987
 H -1.0110767422 -3.0902535733 -0.0957852860
 H -3.7705887874 -1.6408364307  1.5736950052
 H  1.6533209357  0.9811476773  2.1081376056
24
step 16
 O  4.2762494259  2.5947549158  0.3499775010
 O -3.0890374780 -2.2679089924  1.2349617987
 O  3.6463742018  2.0427818523 -1.7671956460
 N  2.0793848379  1.6912057112  1.4856009011
 C  2.2216499825  1.1837007273  0.0851973917
 C  3.3925512658  2.0146098993 -0.5739284750
 C  0.9928524416  1.1438873804 -0.8458149506
 C -0.1076772344  0.2151703457 -0.2933086505
 C -1.2503757071  0.7879835725  0.3585329155
 C -0.0134250346 -1.1866971848 -0.4744003959
 C -2.2177302384 -0.0811747797  0.8221473329
 C -1.0068928487 -2.0200814948  0.0378725934
 C -2.0800291983 -1.4601905591  0.7024252559
 H  1.3556865622  2.4160928465  1.4294088389
 H  2.5927024442  0.1767875821  0.2031415494
 H  3.8701388082  2.3588174503  1.2220076189
 H  1.3545810684  0.7631566230 -1.8019983542
 H  0.6188012727  2.1245471569 -1.0340658917
 H -1.3360383191  1.8175382936  0.5707580476
 H  0.8339483248 -1.6046084330 -1.0002114712
 H -3.1321938372  0.2510895206  1.2639942805
 H -1.0088015908 -3.0939336247 -0.0960542321
 H -3.7657368863 -1.6342629763  1.5715404906
 H  1.6649144385  0.9752612014  2.1019191251
24
step 17
 O  4.2773102624  2.5934553660  0.3497980724
 O -3.0888550854 -2.2641258561  1.2394740261
 O  3.6485914265  2.0425354673 -1.7672368546
 N  2.0810407598  1.6898466416  1.4866019744
 C  2.2221556520  1.1843624240  0.0861524409
 C  3.3931997355  2.0165418455 -0.5733400477
 C  0.9931546377  1.1410612563 -0.8479529518
 C -0.1088000055  0.2127873713 -0.2928349400
 C -1.2486342030  0.7855669301  0.3568833607
 C -0.0123014851 -1.1870013528 -0.4751007612
 C -2.2170589036 -0.0824210626  0.8197100446
 C -1.0059245470 -2.0240787486  0.0380990565
 C -2.0784068391 -1.4608028540  0.7032762320
 H  1.3503352197  2.4253467903  1.4394708001
 H  2.5960612057  0.1714601657  0.1922821752
 H  3.8744059811  2.3567279628  1.2204132632
 H  1.3581583083  0.7562465614 -1.7988794103
 H  0.6146827103  2.1296057903 -1.0375392241
 H -1.3365913040  1.8297082617  0.5695770297
 H  0.8343007457 -1.6100769003 -1.0026006121
 H -3.1365142305  0.2544518413  1.2633196467
 H -1.0056514750 -3.0976103239 -0.0963170057
 H -3.7610369828 -1.6276956921  1.5695219778
 H  1.6766637296  0.9686710775  2.0949866422
24
step 18
 O  4.2782806085  2.5921142061  0.3495163133
 O -3.0885954466 -2.2604453363  1.2439443429
 O  3.6507299989  2.0423142194 -1.7671988111
 N  2.0825622462  1.6886393901  1.4874699599
 C  2.2228667635  1.1850830184  0.0871758221
 C  3.3940939395  2.0184085952 -0.5727119832
 C  0.9934123997  1.1380135045 -0.8500302040
 C -0.1100774394  0.2104813124 -0.2923706643
 C -1.2465978202  0.7826247920  0.3551389632
 C -0.0113568348 -1.1870626296 -0.4756585149
 C -2.2163233296 -0.0835943085  0.8172395603
 C -1.0048740038 -2.0280667335  0.0382697199
 C -2.0769781760 -1.4613734578  0.7041533851
 H  1.3457322074  2.4346336528  1.4505198220
 H  2.5999420945  0.1651875446  0.1809137292
 H  3.8782580890  2.3548842218  1.2191997076
 H  1.3615912323  0.7493132359 -1.7957488052
 H  0.6098983878  2.1360247639 -1.0407218464
 H -1.3370472645  1.8436809856  0.5675017657
 H  0.8346153114 -1.6154038462 -1.0050458046
 H -3.1410363734  0.2591387653  1.2634776906
 H -1.0016586452 -3.1013036252 -0.0965556133
 H -3.7568941398 -1.6208376178  1.5678444176
 H  1.6881782462  0.9610479416  2.0878606082
24
step 19
 O  4.2791750380  2.5907413593  0.3491241641
 O -3.0882417867 -2.2568832046  1.2483659433
 O  3.6527878191  2.0421198495 -1.7670711387
 N  2.0839131415  1.6876637077  1.4881837418
 C  2.2237914180  1.1858246799  0.0882349929
 C  3.3952253859  2.0201978501 -0.5720667325
 C  0.9935873669  1.1348440782 -0.8520236178
 C -0.1114629187  0.2082635718 -0.2919408059
 C -1.2443045221  0.7793323146  0.3533385817
 C -0.0105980381 -1.1869403655 -0.4760753130
 C -2.2155810368 -0.0846627557  0.8147696421
 C -1.0037329371 -2.0320089215  0.0383852113
 C -2.0757367036 -1.4619240695  0.7050493396
 H  1.3428090754  2.4427640205  1.4624943512
 H  2.6041140294  0.1586733595  0.1692312142
 H  3.8815724546  2.3532224011  1.2186036845
 H  1.3649019318  0.7423484301 -1.7928518966
 H  0.6048989155  2.1426674694 -1.0435095647
 H -1.3372385521  1.8575548824  0.5641852649
 H  0.8347203584 -1.6203804610 -1.0074185165
 H -3.1450525267  0.2648232972  1.2641061115
 H -0.9968638351 -3.1050297416 -0.0967505916
 H -3.7536263453 -1.6134693304  1.5666663647
 H  1.6991192129  0.9521515290  2.0810000416
24
step 20
 O  4.2800067738  2.5893459083  0.3486211964
 O -3.0877870215 -2.2534478586  1.2527370292
 O  3.6547635471  2.0419541301 -1.7668455629
 N  2.0850684106  1.6869697715  1.4887356393
 C  2.2249362967  1.1865484526  0.0892943467
 C  3.3965827560  2.0218966767 -0.5714255181
 C  0.9936437961  1.1316515328 -0.8539113493
 C -0.1129075116  0.2061441555 -0.2915710201
 C -1.2417936172  0.7758574926  0.3515176515
 C -0.0100304940 -1.1866956458 -0.4763540226
 C -2.2148879183 -0.0855965574  0.8123337850
 C -1.0024949419 -2.0358688535  0.0384474685
 C -2.0746738634 -1.4624751490  0.7059559251
 H  1.3422558259  2.4487814238  1.4752828684
 H  2.6083391837  0.1526380922  0.1574509157
 H  3.8842711399  2.3517028817  1.2187564313
 H  1.3681046276  0.7353525238 -1.7904112913
 H  0.6001288189  2.1484218204 -1.0458071048
 H -1.3370091602  1.8695630159  0.5593325388
 H  0.8344505804 -1.6248010686 -1.0095917206
 H -3.1478788640  0.2711687184  1.2648476592
 H -0.9913153101 -3.1087955670 -0.0968807079
 H -3.7514126052 -1.6054986977  1.5660766932
 H  1.7092441957  0.9419035980  2.0747402706
24
step 21
 O  4.2807869817  2.5879355948  0.3480160520
 O -3.0872354378 -2.2501387462  1.2570615162
 O  3.6566566707  2.0418188477 -1.7665162663
 N  2.0860164693  1.6865696276  1.4891332935
 C  2.2263044535  1.1872203856  0.0903157550
 C  3.3981520671  2.0234916279 -0.5708077216
 C  0.9935535521  1.1285217800 -0.8556736552
 C -0.1143614578  0.2041316105 -0.2912868561
 C -1.2391042949  0.7723452719  0.3497052911
 C -0.0096595102 -1.1863888098 -0.4764976165
 C -2.2142905864 -0.0863702360  0.8099614464
 C -1.0011556181 -2.0396113448  0.0384596938
 C -2.0737793167 -1.4630445400  0.7068643905
 H  1.3444604377  2.4520368957  1.4887315389
 H  2.6123997876  0.1477425825  0.1458090214
 H  3.8863307343  2.3503169804  1.2196593343
 H  1.3711964128  0.7283436902 -1.7885987271
 H  0.5959789108  2.1523208577 -1.0475470266
 H -1.3362295338  1.8782440210  0.5527327530
 H  0.8336702715 -1.6284788964 -1.0114550391
 H -3.1489347290  0.2778596979  1.2653884389
 H -0.9850679443 -3.1125939569 -0.0969227557
 H -3.7502657728 -1.5969885282  1.5660842860
 H  1.7184337576  0.9304376809  2.0692536642
24
step 22
 O  4.2815246001  2.5865166739  0.3473264586
 O -3.0866022842 -2.2469465858  1.2613486851
 O  3.6584675388  2.0417157861 -1.7660801492
 N  2.0867607573  1.6864339004  1.4893986601
 C  2.2278935566  1.1878164622  0.0912596075
 C  3.3999169124  2.0249689084 -0.5702303914
 C  0.9932996797  1.1255201800 -0.8572938849
 C -0.1157755645  0.2022328791 -0.2911130167
 C -1.2362745563  0.7689082893  0.3479228988
 C -0.0094914694 -1.1860771124 -0.4765082378
 C -2.2138207099 -0.0869646631  0.8076752296
 C -0.9997126835 -2.0432035188  0.0384263139
 C -2.0730413084 -1.4636463766  0.7077656438
 H  1.3494831809  2.4522284811  1.5026571454
 H  2.6161197731  0.1445260431  0.1345565438
 H  3.8877826008  2.3490877080  1.2211820957
 H  1.3741499576  0.7213652019 -1.7875132686
 H  0.5927527528  2.1536262169 -1.0487013978
 H -1.3348055466  1.8825368322  0.5442730707
 H  0.8322923343 -1.6312600090 -1.0129274353
 H -3.1478007475  0.2846272478  1.2654865683
 H -0.9781824106 -3.1164005531 -0.0968515255
 H -3.7500369825 -1.5881541734  1.5666230418
 H  1.7266943745  0.9181103245  2.0645436808
24
step 23
 O  4.2822267013  2.5850941278  0.3465777945
 O -3.0859113821 -2.2438553664  1.2656118901
 O  3.6601973594  2.0416467083 -1.7655369980
 N  2.0873213037  1.6864933786  1.4895642412
 C  2.2296946864  1.1883260996  0.0920862268
 C  3.4018587666  2.0263145903 -0.5697078791
 C  0.9928785334  1.1226867529 -0.8587591830
 C -0.1171024667  0.2004530871 -0.2910726785
 C -1.2333403617  0.7656221639  0.3461837106
 C -0.0095345465 -1.1858126752 -0.4763865415
 C -2.2134914181 -0.0873685361  0.8054890489
 C -0.9981660859 -2.0466156043  0.0383529603
 C -2.0724471027 -1.4642903403  0.7086505110
 H  1.3570539230  2.4494165002  1.5168631975
 H  2.6193802764  0.1433612666  0.1239516449
 H  3.8887037093  2.3480644387  1.2230839175
 H  1.3769097669  0.7144892317 -1.7871694402
 H  0.5906457873  2.1518789022 -1.0492874701
 H -1.3326835844  1.8818249858  0.5339404856
 H  0.8302914304 -1.6330342661 -1.0139663505
 H -3.1442557590  0.2912670663  1.2649912353
 H -0.9707245239 -3.1201727233 -0.0966400187
 H -3.7504500437 -1.5793312150  1.5675704063
 H  1.7341385983  0.9054684210  2.0604727916
24
step 24
 O  4.2828992533  2.5836721554  0.3458004931
 O -3.0851913654 -2.2408456284  1.2698666595
 O  3.6618481696  2.0416133387 -1.7648895674
 N  2.0877360725  1.6866447358  1.4896674063
 C  2.2316916811  1.1887542455  0.0927574650
 C  3.4039573491  2.0275148739 -0.5692515904
 C  0.9923006546  1.1200338940 -0.8600605612
 C -0.1182977361  0.1987952962 -0.2911868803
 C -1.2303348297  0.7625232817  0.3444928460
 C -0.0097988862 -1.1856408519 -0.4761313826
 C -2.2132955800 -0.0875793874  0.8034071837
 C -0.9965181218 -2.0498214727  0.0382464761
 C -2.0719834620 -1.4649812752  0.7095100126
 H  1.3665880125  2.4440181904  1.5311576700
 H  2.6221292509  0.1444263521  0.1142505474
 H  3.8892003048  2.3473128553  1.2250530377
 H  1.3793930373  0.7078160126 -1.7874973121
 H  0.5897340466  2.1469257793 -1.0493692581
 H -1.3298536836  1.8759554656  0.5218172864
 H  0.8277104587 -1.6337425620 -1.0145726702
 H -3.1382951367  0.2976517160  1.2638533203
 H -0.9627647012 -3.1238508807 -0.0962599547
 H -3.7511564906 -1.5709213411  1.5687743385
 H  1.7409495674  0.8931796952  2.0568149428
24
step 25
 O  4.2835480815  2.5822547958  0.3450267951
 O -3.0844713807 -2.2378982573  1.2741286160
 O  3.6634227865  2.0416173425 -1.7641435836
 N  2.0880610718  1.6867596850  1.4897440935
 C  2.2338609689  1.1891221645  0.0932382749
 C  3.4061910309  2.0285563873 -0.5688698410
 C  0.9915906170  1.1175460267 -0.8611922206
 C -0.1193208166  0.1972602340 -0.2914739913
 C -1.2272873848  0.7596077752  0.3428475735
 C -0.0102962095 -1.1855991040 -0.4757398886
 C -2.2132057753 -0.0876041659  0.8014241273
 C -0.9947735571 -2.0527989262  0.0381149479
 C -2.0716371325 -1.4657191507  0.7103356481
 H  1.3772251292  2.4367762229  1.5453704597
 H  2.6243858336  0.1476912854  0.1056979890
 H  3.8893879242  2.3469024613  1.2267565205
 H  1.3814953183  0.7014680363 -1.7883544036
 H  0.5899698375  2.1389286294 -1.0490564863
 H -1.3263519516  1.8652478308  0.5080733646
 H  0.8246599751 -1.6333798419 -1.0147911722
 H -3.1301328814  0.3037370935  1.2621285742
 H -0.9543774526 -3.1273620285 -0.0956825642
 H -3.7517984512 -1.5633287695  1.5700824246
 H  1.7473395264  0.8819421974  2.0533180781
24
step 26
 O  4.2841798306  2.5808465388  0.3442874179
 O -3.0837770274 -2.2349980655  1.2784115956
 O  3.6649247500  2.0416603037 -1.7633076784
 N  2.0883678215  1.6866972773  1.4898232127
 C  2.2361718446  1.1894669292  0.0934980643
 C  3.4085372684  2.0294265129 -0.5685678088
 C  0.9907859759  1.1151809399 -0.8621502660
 C -0.1201357673  0.1958460152 -0.2919492766
 C -1.2242228454  0.7568314180  0.3412377642
 C -0.0110388383 -1.1857164232 -0.4752079300
 C -2.2131759088 -0.0874593470  0.7995252114
 C -0.9929397372 -2.0555297764  0.0379677532
 C -2.0713953076 -1.4664993317  0.7111196805
 H  1.3879023929  2.4286881069  1.5593672273
 H  2.6262398383  0.1529185370  0.0985179378
 H  3.8893714060  2.3468941366  1.2278913195
 H  1.3831002998  0.6955798971 -1.7895472218
 H  0.5911835779  2.1283578814 -1.0485014026
 H -1.3222624162  1.8504968325  0.4929558365
 H  0.8213104483 -1.6319936641 -1.0147062973
 H -3.1201879630  0.3095628642  1.2599733496
 H -0.9456408279 -3.1306252079 -0.0948796002
 H -3.7520675140 -1.5568992320  1.5713677606
 H  1.7535106763  0.8723904374  2.0497632665
24
step 27
 O  4.2848027583  2.5794528058  0.3436086240
 O -3.0831270807 -2.2321366444  1.2827262053
 O  3.6663582646  2.0417436993 -1.7623932576
 N  2.0887369925  1.6863193831  1.4899228203
 C  2.2385872145  1.1898395074  0.0935116970
 C  3.4109730537  2.0301137228 -0.5683475737
 C  0.9899353318  1.1128729775 -0.8629311562
 C -0.1207117746  0.1945478425 -0.2926245868
 C -1.2211605989  0.7541112605  0.3396467064
 C -0.0120381580 -1.1860132814 -0.4745309878
 C -2.2131445836 -0.0871704158  0.7976880702
 C -0.9910266964 -2.0579997772  0.0378156207