3
step 0
 O -0.0425822924 -0.0147631161 -0.0169774048
 H  0.6534321057 -0.5164034658  0.4758205453
 H  0.3853501912  0.8762665834 -0.0602431387
3
step 1
 O -0.0432459198 -0.0183302008 -0.0204433537
 H  0.6503605635 -0.5092567932  0.4828042846
 H  0.3890853608  0.8726869956 -0.0637609290
3
step 2
 O -0.0438928365 -0.0218329691 -0.0238811881
 H  0.6474322349 -0.5025325088  0.4898887762
 H  0.3925032991  0.8689992617 -0.0673493090
3
step 3
 O -0.0445107974 -0.0252461300 -0.0272918920
 H  0.6447030431 -0.4965253320  0.4971983281
 H  0.3953548531  0.8651027152 -0.0711111063
3
step 4
 O -0.0450858287 -0.0285540655 -0.0306726654
 H  0.6421458714 -0.4914412998  0.5047917199
 H  0.3974462573  0.8609604079 -0.0751447796
3
step 5
 O -0.0456026859 -0.0317522755 -0.0340163522
 H  0.6396440195 -0.4873859879  0.5126485121
 H  0.3986529449  0.8566102114 -0.0795398510
3
step 6
 O -0.0460459857 -0.0348470136 -0.0373118144
 H  0.6370040602 -0.4843676481  0.5206704970
 H  0.3989246673  0.8521622674 -0.0843723395
3
step 7
 O -0.0464018273 -0.0378533298 -0.0405452177
 H  0.6339852630 -0.4823128243  0.5286980029
 H  0.3982818357  0.8477836809 -0.0897005142
3
step 8
 O -0.0466595519 -0.0407919536 -0.0437019859
 H  0.6303390180 -0.4810899300  0.5365373871
 H  0.3968040503  0.8436727822 -0.0955612119
3
step 9
 O -0.0468132559 -0.0436855654 -0.0467690597
 H  0.6258502110 -0.4805357100  0.5439940628
 H  0.3946127722  0.8400265620 -0.1019668683
3
step 10
 O -0.0468627783 -0.0465550338 -0.0497370784
 H  0.6203732646 -0.4804802225  0.5509051198
 H  0.3918509823  0.8370060888 -0.1089033586
3
step 11
 O -0.0468140504 -0.0494161704 -0.0526021610
 H  0.6138576497 -0.4807672710  0.5571665441
 H  0.3886632569  0.8347056097 -0.1163287711
3
step 12
 O -0.0466788445 -0.0522774823 -0.0553670477
 H  0.6063599910 -0.4812684733  0.5627514385
 H  0.3851797004  0.8331311331 -0.1241733324
3
step 13
 O -0.0464740266 -0.0551392740 -0.0580414387
 H  0.5980417956 -0.4818900659  0.5677169508
 H  0.3815063934  0.8321931282 -0.1323408115
3
step 14
 O -0.0462204174 -0.0579942548 -0.0606414370
 H  0.5891532629 -0.4825721773  0.5721987128
 H  0.3777235064  0.8317154854 -0.1407117580
3
step 15
 O -0.0459413274 -0.0608295606 -0.0631880797
 H  0.5800049124 -0.4832809083  0.5763927343
 H  0.3738904079  0.8314595974 -0.1491487961
3
step 16
 O -0.0456608303 -0.0636298443 -0.0657050555
 H  0.5709302384 -0.4839944369  0.5805262446
 H  0.3700555601  0.8311593052 -0.1575038909
3
step 17
 O -0.0454018919 -0.0663808809 -0.0682158628
 H  0.5622443098 -0.4846855741  0.5848210721
 H  0.3662681788  0.8305604062 -0.1656271047
3
step 18
 O -0.0451845681 -0.0690730178 -0.0707408235
 H  0.5542047005 -0.4853044771  0.5894554246
 H  0.3625886525  0.8294578843 -0.1733760066
3
step 19
 O -0.0450245504 -0.0717038057 -0.0732944797
 H  0.5469815742 -0.4857659617  0.5945314705
 H  0.3590953457  0.8277248456 -0.1806247053
3
step 20
 O -0.0449323144 -0.0742792850 -0.0758838894
 H  0.5406424430 -0.4859454087  0.6000559012
 H  0.3558863267  0.8253288321 -0.1872714755
3
step 21
 O -0.0449129962 -0.0768136510 -0.0785081721
 H  0.5351540817 -0.4856853975  0.6059381888
 H  0.3530755008  0.8223332335 -0.1932441339
3
step 22
 O -0.0449669272 -0.0793273336 -0.0811593799
 H  0.5304001903 -0.4848124181  0.6120071230
 H  0.3507834700  0.8188836431 -0.1985026356
3
step 23
 O -0.0450905990 -0.0818438266 -0.0838244661
 H  0.5262100631 -0.4831603462  0.6180418952
 H  0.3491241964  0.8151811393 -0.2030387779
3
step 24
 O -0.0452777650 -0.0843858321 -0.0864879117
 H  0.5223918392 -0.4805958247  0.6238110505
 H  0.3481892552  0.8114465819 -0.2068733632
3
step 25
 O -0.0455204375 -0.0869714020 -0.0891344821
 H  0.5187640957 -0.4770406479  0.6291117747
 H  0.3480320967  0.8078818680 -0.2100516161
3
step 26
 O -0.0458096579 -0.0896107573 -0.0917516316
 H  0.5151810241 -0.4724873724  0.6338029481
 H  0.3486551103  0.8046351907 -0.2126379449
3
step 27
 O -0.0461360273 -0.0923043464 -0.0943311907
 H  0.5115483341 -0.4670059982  0.6378272912
 H  0.3500021789  0.8017770627 -0.2147111577
3
step 28
 O -0.0464900489 -0.0950424855 -0.0968701204
 H  0.5078287205 -0.4607411194  0.6412199427
 H  0.3519586681  0.7992918934 -0.2163609266
3
step 29
 O -0.0468623291 -0.0978066308 -0.0993702665
 H  0.5040370270 -0.4539001880  0.6441025810
 H  0.3543594727  0.7970865319 -0.2176857279
3
step 30
 O -0.0472436546 -0.1005720342 -0.1018371858
 H  0.5002263117 -0.4467345165  0.6466638199
 H  0.3570041669  0.7950134044 -0.2187918899
3
step 31
 O -0.0476249414 -0.1033112889 -0.1042782463
 H  0.4964670903 -0.4395154698  0.6491283284
 H  0.3596769373  0.7929028662 -0.2197929766
3
step 32
 O -0.0479970779 -0.1059981371 -0.1067003280
 H  0.4928231886 -0.4325089819  0.6517190440
 H  0.3621681999  0.7905979824 -0.2208086585
3
step 33
 O -0.0483507384 -0.1086109086 -0.1091075485
 H  0.4893286341 -0.4259518879  0.6546186404
 H  0.3642947281  0.7879852680 -0.2219624405
3
step 34
 O -0.0486763018 -0.1111350704 -0.1114994760
 H  0.4859703605 -0.4200333269  0.6579373662
 H  0.3659156251  0.7850164437 -0.2233779839
3
step 35
 O -0.0489640079 -0.1135645559 -0.1138702279
 H  0.4826807088 -0.4148835265  0.6616937389
 H  0.3669423032  0.7817182941 -0.2251741289
3
step 36
 O -0.0492044190 -0.1159017656 -0.1162086874
 H  0.4793416911 -0.4105707808  0.6658121136
 H  0.3673415558  0.7781896890 -0.2274589860
3
step 37
 O -0.0493891391 -0.1181563386 -0.1184998276
 H  0.4758002714 -0.4071058301  0.6701374317
 H  0.3671317049  0.7745865434 -0.2303236018
3
step 38
 O -0.0495116404 -0.1203429651 -0.1207268934
 H  0.4718914214 -0.4044516478  0.6744637232
 H  0.3663726722  0.7710969685 -0.2338357382
3
step 39
 O -0.0495680053 -0.1224786254 -0.1228740351
 H  0.4674642615 -0.4025361236  0.6785704009
 H  0.3651516465  0.7679102228 -0.2380342895
3
step 40
 O -0.0495574352 -0.1245797048 -0.1249289356
 H  0.4624064759 -0.4012652860  0.6822596031
 H  0.3635667439  0.7651842266 -0.2429248348
3
step 41
 O -0.0494824565 -0.1266594413 -0.1268850217
 H  0.4566631221 -0.4005352441  0.6853885725
 H  0.3617115016  0.7630171024 -0.2484768163
3
step 42
 O -0.0493488449 -0.1287261151 -0.1287429472
 H  0.4502473462 -0.4002416507  0.6878925916
 H  0.3596629735  0.7614280212 -0.2546228238
3
step 43
 O -0.0491653262 -0.1307822718 -0.1305111458
 H  0.4432418946 -0.4002860097  0.6897956710
 H  0.3574754916  0.7603512795 -0.2612604012
3
step 44
 O -0.0489431071 -0.1328250925 -0.1322053596
 H  0.4357914565 -0.4005785308  0.6912077049
 H  0.3551808949  0.7596450994 -0.2682566228
3
step 45
 O -0.0486952588 -0.1348478205 -0.1338471569
 H  0.4280868426 -0.4010375616  0.6923082294
 H  0.3527945550  0.7591136985 -0.2754553876
3
step 46
 O -0.0484359532 -0.1368419616 -0.1354615740
 H  0.4203429361 -0.4015860214  0.6933184998
 H  0.3503252978  0.7585385674 -0.2826869938
3
step 47
 O -0.0481795754 -0.1387998407 -0.1370741595
 H  0.4127733035 -0.4021457857  0.6944654747
 H  0.3477866767  0.7577133095 -0.2897791613
3
step 48
 O -0.0479397829 -0.1407170419 -0.1387078369
 H  0.4055651585 -0.4026315514  0.6959432527
 H  0.3452070543  0.7564761078 -0.2965683881
3
step 49
 O -0.0477286346 -0.1425942824 -0.1403800968
 H  0.3988586827 -0.4029461386  0.6978788809
 H  0.3426364400  0.7547346746 -0.3029104202
3
step 50
 O -0.0475559241 -0.1444383638 -0.1421010228
 H  0.3927341698 -0.4029791653  0.7003094460
 H  0.3401487593  0.7524799904 -0.3086887015
3
step 51
 O -0.0474288084 -0.1462619943 -0.1438725261
 H  0.3872089868 -0.4026104044  0.7031754736
 H  0.3378389966  0.7497868474 -0.3138199170
3
step 52
 O -0.0473517374 -0.1480824604 -0.1456889175
 H  0.3822442766 -0.4017179713  0.7063321788
 H  0.3358153869  0.7468010057 -0.3182561200
3
step 53
 O -0.0473266085 -0.1499193292 -0.1475386656
 H  0.3777593094 -0.4001901822  0.7095760956
 H  0.3341875214  0.7437146164 -0.3219834133
3
step 54
 O -0.0473530193 -0.1517915669 -0.1494069203
 H  0.3736504659 -0.3979385970  0.7126812642
 H  0.3330513894  0.7407335795 -0.3250180402
3
step 55
 O -0.0474285621 -0.1537144517 -0.1512784177
 H  0.3698096055 -0.3949110536  0.7154385138
 H  0.3324756867  0.7380416232 -0.3273995179
3
step 56
 O -0.0475490467 -0.1556969799 -0.1531400362
 H  0.3661408662 -0.3911005773  0.7176898485
 H  0.3324885665  0.7357681087 -0.3291843886
3
step 57
 O -0.0477087221 -0.1577401497 -0.1549827270
 H  0.3625721977 -0.3865499191  0.7193534671
 H  0.3330696415  0.7339654004 -0.3304405250
3
step 58
 O -0.0479005273 -0.1598364770 -0.1568025035
 H  0.3590608902 -0.3813507869  0.7204358765
 H  0.3341484500  0.7326005046 -0.3312434570
3
step 59
 O -0.0481164001 -0.1619708399 -0.1586003867
 H  0.3555928890 -0.3756379355  0.7210297905
 H  0.3356100486  0.7315626206 -0.3316750762
3
step 60
 O -0.0483476319 -0.1641224877 -0.1603813676
 H  0.3521764710 -0.3695789318  0.7212983230
 H  0.3373069819  0.7306848003 -0.3318242922
3
step 61
 O -0.0485852278 -0.1662678358 -0.1621525933
 H  0.3488315531 -0.3633609189  0.7214477484
 H  0.3390756657  0.7297750283 -0.3317886239
3
step 62
 O -0.0488202222 -0.1683835493 -0.1639211080
 H  0.3455765683 -0.3571760594  0.7216928516
 H  0.3407545151  0.7286505230 -0.3316754988
3
step 63
 O -0.0490439350 -0.1704494117 -0.1656915629
 H  0.3424153915 -0.3512074683  0.7222204380
 H  0.3422010589  0.7271690887 -0.3316022027
3
step 64
 O -0.0492481897 -0.1724505581 -0.1674643404
 H  0.3393270247 -0.3456172879  0.7231574254
 H  0.3433057028  0.7252525533 -0.3316938393
3
step 65
 O -0.0494255397 -0.1743787976 -0.1692344803
 H  0.3362604171 -0.3405380794  0.7245495483
 H  0.3440004905  0.7228990902 -0.3320791285
3
step 66
 O -0.0495695362 -0.1762329062 -0.1709916543
 H  0.3331358244 -0.3360680113  0.7263548099
 H  0.3442619948  0.7201830448 -0.3328842765
3
step 67
 O -0.0496750301 -0.1780179255 -0.1727212266
 H  0.3298526875 -0.3322696186  0.7284527719
 H  0.3441082239  0.7172425608 -0.3342254293
3
step 68
 O -0.0497384535 -0.1797436279 -0.1744062172
 H  0.3263025587 -0.3291713843  0.7306674528
 H  0.3435901774  0.7142568212 -0.3362003972
3
step 69
 O -0.0497580121 -0.1814224166 -0.1760298154
 H  0.3223845799 -0.3267711813  0.7327990261
 H  0.3427794162  0.7114161682 -0.3388804417
3
step 70
 O -0.0497337363 -0.1830670025 -0.1775780103
 H  0.3180206777 -0.3250406678  0.7346583030
 H  0.3417536891  0.7088896614 -0.3423029793
3
step 71
 O -0.0496673909 -0.1846882451 -0.1790419164
 H  0.3131679477 -0.3239299380  0.7360981780
 H  0.3405831165  0.7067954953 -0.3464660786
3
step 72
 O -0.0495622872 -0.1862935273 -0.1804194460
 H  0.3078264125 -0.3233719564  0.7370373507
 H  0.3393194673  0.7051796919 -0.3513255806
3
step 73
 O -0.0494230631 -0.1878859489 -0.1817160885
 H  0.3020411786 -0.3232864848  0.7374731678
 H  0.3379905179  0.7040072966 -0.3567955091
3
step 74
 O -0.0492554766 -0.1894644739 -0.1829446755
 H  0.2958988158 -0.3235833199  0.7374819809
 H  0.3366004067  0.7031679878 -0.3627521208
3
step 75
 O -0.0490662207 -0.1910249740 -0.1841241316
 H  0.2895184845 -0.3241647476  0.7372069206
 H  0.3351355685  0.7024951104 -0.3690414996
3
step 76
 O -0.0488627319 -0.1925619406 -0.1852773419
 H  0.2830389719 -0.3249272265  0.7368345472
 H  0.3335746520  0.7017944807 -0.3754900877
3
step 77
 O -0.0486529571 -0.1940705145 -0.1864284029
 H  0.2766033756 -0.3257624741  0.7365635399
 H  0.3319001193  0.7008776129 -0.3819170951
3
step 78
 O -0.0484450637 -0.1955484445 -0.1875996434
 H  0.2703436156 -0.3265583435  0.7365702580
 H  0.3301091182  0.6995935853 -0.3881474382
3
step 79
 O -0.0482471121 -0.1969976151 -0.1888088844
 H  0.2643671177 -0.3272000648  0.7369772000
 H  0.3282215803  0.6978544329 -0.3940237741
3
step 80
 O -0.0480667299 -0.1984248626 -0.1900674056
 H  0.2587477183 -0.3275724957  0.7378304849
 H  0.3262841348  0.6956502953 -0.3994163228
3
step 81
 O -0.0479108237 -0.1998419139 -0.1913789806
 H  0.2535220642 -0.3275638667  0.7390910797
 H  0.3243691243  0.6930521480 -0.4042294496
3
step 82
 O -0.0477853355 -0.2012644084 -0.1927401427
 H  0.2486916679 -0.3270711295  0.7406417312
 H  0.3225686893  0.6902016074 -0.4084043864
3
step 83
 O -0.0476950246 -0.2027101041 -0.1941416002
 H  0.2442296488 -0.3260065052  0.7423081667
 H  0.3209845471  0.6872889969 -0.4119179824
3
step 84
 O -0.0476432405 -0.2041965081 -0.1955704933
 H  0.2400903865 -0.3243043882  0.7438901642
 H  0.3197147504  0.6845226293 -0.4147779713
3
step 85
 O -0.0476316809 -0.2057382922 -0.1970130365
 H  0.2362200115 -0.3219275274  0.7451963796
 H  0.3188393364  0.6820939653 -0.4170158532
3
step 86
 O -0.0476601598 -0.2073449310 -0.1984570515
 H  0.2325658430 -0.3188714627  0.7460766351
 H  0.3184072274  0.6801445694 -0.4186789779
3
step 87
 O -0.0477264555 -0.2090189984 -0.1998939468
 H  0.2290833792 -0.3151664735  0.7464464069
 H  0.3184268186  0.6787410544 -0.4198235792
3
step 88
 O -0.0478263085 -0.2107554623 -0.2013198299
 H  0.2257400485 -0.3108767046  0.7462999568
 H  0.3188622107  0.6778630505 -0.4205102121
3
step 89
 O -0.0479536178 -0.2125421290 -0.2027356032
 H  0.2225155061 -0.3060965531  0.7457104488
 H  0.3196360347  0.6774066883 -0.4208023134
3
step 90
 O -0.0481008304 -0.2143611611 -0.2041460716
 H  0.2193987611 -0.3009447708  0.7448172500
 H  0.3206385048  0.6772027937 -0.4207676585
3
step 91
 O -0.0482594686 -0.2161913790 -0.2055582525
 H  0.2163828573 -0.2955570095  0.7438023883
 H  0.3217411071  0.6770459479 -0.4204816639
3
step 92
 O -0.0484207161 -0.2180109312 -0.2069792126
 H  0.2134582073 -0.2900776895  0.7428598121
 H  0.3228125488  0.6767286657 -0.4200310492
3
step 93
 O -0.0485759856 -0.2197998869 -0.2084138380
 H  0.2106059687 -0.2846520646  0.7421624836
 H  0.3237343873  0.6760745357 -0.4195163980
3
step 94
 O -0.0487174210 -0.2215423737 -0.2098629683
 H  0.2077929476 -0.2794191825  0.7418330660
 H  0.3244140718  0.6749650252 -0.4190525387
3
step 95
 O -0.0488383092 -0.2232279976 -0.2113222687
 H  0.2049693276 -0.2745061415  0.7419236208
 H  0.3247937435  0.6733562237 -0.4187661988
3
step 96
 O -0.0489333917 -0.2248524191 -0.2127820837
 H  0.2020699995 -0.2700236964  0.7424081350
 H  0.3248538481  0.6712835460 -0.4187908974
3
step 97
 O -0.0489990616 -0.2264170762 -0.2142283261
 H  0.1990195080 -0.2660630110  0.7431891128
 H  0.3246113065  0.6688540695 -0.4192594465
3
step 98
 O -0.0490334218 -0.2279281497 -0.2156442571
 H  0.1957398387 -0.2626932546  0.7441165928
 H  0.3241126496  0.6662276925 -0.4202947275
3
step 99
 O -0.0490361852 -0.2293949522 -0.2170128509
 H  0.1921596803 -0.2599598042  0.7450156124
 H  0.3234231734  0.6635897629 -0.4219996263
3
step 100
 O -0.0490084225 -0.2308280010 -0.2183193502
 H  0.1882235579 -0.2578829796  0.7457169044
 H  0.3226138011  0.6611192197 -0.4244471816
3
step 101
 O -0.0489522015 -0.2322370919 -0.2195536047
 H  0.1838993548 -0.2564573871  0.7460855692
 H  0.3217478417  0.6589573886 -0.4276721116
3
step 102
 O -0.0488701982 -0.2336297139 -0.2207118430
 H  0.1791831097 -0.2556520355  0.7460433147
 H  0.3208700195  0.6571829659 -0.4316648981
3
step 103
 O -0.0487653686 -0.2350100968 -0.2217976173
 H  0.1741004573 -0.2554113764  0.7455811561
 H  0.3199998440  0.6557979983 -0.4363694512
3
step 104
 O -0.0486407527 -0.2363790706 -0.2228217718
 H  0.1687045717 -0.2556573495  0.7447608809
 H  0.3191305567  0.6547277357 -0.4416850181
3
step 105
 O -0.0484994316 -0.2377347448 -0.2238014145
 H  0.1630709196 -0.2562924023  0.7437050094
 H  0.3182337051  0.6538344612 -0.4474724535
3
step 106
 O -0.0483446122 -0.2390738471 -0.2247579981
 H  0.1572895329 -0.2572033477  0.7425764485
 H  0.3172682083  0.6529425823 -0.4535643359
3
step 107
 O -0.0481797795 -0.2403934321 -0.2257147559
 H  0.1514558496 -0.2582658497  0.7415506041
 H  0.3161919293  0.6518701854 -0.4597778340
3
step 108
 O -0.0480088534 -0.2416926169 -0.2266938530
 H  0.1456614083 -0.2593492972  0.7407842354
 H  0.3149734538  0.6504613932 -0.4659288345
3
step 109
 O -0.0478363002 -0.2429740206 -0.2277136963
 H  0.1399857339 -0.2603218580  0.7403864345
 H  0.3136019554  0.6486141874 -0.4718456987
3
step 110
 O -0.0476671673 -0.2442446506 -0.2287868480
 H  0.1344905535 -0.2610555539  0.7403972918
 H  0.3120935298  0.6462994876 -0.4773811035
3
step 111
 O -0.0475070241 -0.2455160702 -0.2299189033
 H  0.1292170225 -0.2614312494  0.7407786960
 H  0.3104930122  0.6435687598 -0.4824206945
3
step 112
 O -0.0473617883 -0.2468037815 -0.2311085220
 H  0.1241860263 -0.2613434408  0.7414193902
 H  0.3088709188  0.6405489801 -0.4868876736
3
step 113
 O -0.0472374213 -0.2481258590 -0.2323485838
 H  0.1194010152 -0.2607046835  0.7421534285
 H  0.3073157680  0.6374253410 -0.4907429459
3
step 114
 O -0.0471394870 -0.2495009758 -0.2336282250
 H  0.1148524202 -0.2594494135  0.7427884307
 H  0.3059226633  0.6344137287 -0.4939810654
3
step 115
 O -0.0470726023 -0.2509460787 -0.2349353612
 H  0.1105225548 -0.2575368702  0.7431382680
 H  0.3047796609  0.6317267188 -0.4966229086
3
step 116
 O -0.0470398485 -0.2524740606 -0.2362592253
 H  0.1063900253 -0.2549528471  0.7430543416
 H  0.3039540147  0.6295383818 -0.4987066665
3
step 117
 O -0.0470422501 -0.2540918306 -0.2375924692
 H  0.1024329460 -0.2517100902  0.7424502849
 H  0.3034807023  0.6279540758 -0.5002791701
3
step 118
 O -0.0470784401 -0.2557991521 -0.2389324655
 H  0.0986305767 -0.2478473209  0.7413162980
 H  0.3033554712  0.6269910645 -0.5013895208
3
step 119
 O -0.0471445994 -0.2575884912 -0.2402815910
 H  0.0949633061 -0.2434270342  0.7397210120
 H  0.3035339134  0.6265739701 -0.5020863984
3
step 120
 O -0.0472347053 -0.2594459224 -0.2416464525
 H  0.0914111688 -0.2385323822  0.7378005570
 H  0.3039368967  0.6265460730 -0.5024193859
3
step 121
 O -0.0473410537 -0.2613529216 -0.2430361966
 H  0.0879513105 -0.2332635559  0.7357363205
 H  0.3044613852  0.6266941590 -0.5024435332
3
step 122
 O -0.0474549667 -0.2632887107 -0.2444602140
 H  0.0845549981 -0.2277340801  0.7337246784
 H  0.3049946680  0.6267820102 -0.5022255533
3
step 123
 O -0.0475675793 -0.2652327495 -0.2459256636
 H  0.0811849052 -0.2220673171  0.7319435745
 H  0.3054295367  0.6265864080 -0.5018497488
3
step 124
 O -0.0476705993 -0.2671669950 -0.2474352910
 H  0.0777934295 -0.2163932422  0.7305218102
 H  0.3056780321  0.6259297177 -0.5014219704
3
step 125
 O -0.0477569633 -0.2690776437 -0.2489859788
 H  0.0743226759 -0.2108452711  0.7295168132
 H  0.3056818561  0.6247043242 -0.5010704453
3
step 126
 O -0.0478213284 -0.2709561857 -0.2505683333
 H  0.0707064489 -0.2055567152  0.7289052198
 H  0.3054181840  0.6228858079 -0.5009429268
3
step 127
 O -0.0478603571 -0.2727997060 -0.2521674212
 H  0.0668741836 -0.2006564173  0.7285880498
 H  0.3049002604  0.6205333652 -0.5012001687
3
step 128
 O -0.0478727640 -0.2746104491 -0.2537645517
 H  0.0627563176 -0.1962633169  0.7284092435
 H  0.3041727671  0.6177774930 -0.5020061625
3
step 129
 O -0.0478591100 -0.2763947364 -0.2553398129
 H  0.0582902937 -0.1924800588  0.7281837644
 H  0.3033025649  0.6147964515 -0.5035159281
3
step 130
 O -0.0478213647 -0.2781613999 -0.2568749623
 H  0.0534262715 -0.1893861367  0.7277299916
 H  0.3023660515  0.6117846174 -0.5058619718
3
step 131
 O -0.0477623035 -0.2799199798 -0.2583562314
 H  0.0481317064 -0.1870313388  0.7269008847
 H  0.3014350266  0.6089174365 -0.5091408222
3
step 132
 O -0.0476848485 -0.2816790050 -0.2597766393
 H  0.0423941824 -0.1854303619  0.7256091190
 H  0.3005634368  0.6063189035 -0.5134012896
3
step 133
 O -0.0475914899 -0.2834446933 -0.2611374783
 H  0.0362221741 -0.1845593934  0.7238425774
 H  0.2997774657  0.6040377416 -0.5186361549
3
step 134
 O -0.0474839099 -0.2852203507 -0.2624487373
 H  0.0296437103 -0.1843552738  0.7216679100
 H  0.2990709514  0.6020372831 -0.5247787717
3
step 135
 O -0.0473628866 -0.2870066014 -0.2637283448
 H  0.0227031967 -0.1847175829  0.7192212289
 H  0.2984070835  0.6002014647 -0.5317055135
3
step 136
 O -0.0472284859 -0.2888023915 -0.2650002671
 H  0.0154569079 -0.1855136619  0.7166865287
 H  0.2977260036  0.5983560018 -0.5392441767
3
step 137
 O -0.0470804700 -0.2906065368 -0.2662917325
 H  0.0079671174 -0.1865864018  0.7142645691
 H  0.2969571819  0.5963009176 -0.5471867413
3
step 138
 O -0.0469188935 -0.2924194752 -0.2676296806
 H  0.0002985966 -0.1877633377  0.7121353447
 H  0.2960324123  0.5938475572 -0.5553080969
3
step 139
 O -0.0467446765 -0.2942448780 -0.2690373850
 H -0.0074861192 -0.1888671746  0.7104224258
 H  0.2948996489  0.5908547891 -0.5633839002
3
step 140
 O -0.0465601095 -0.2960908282 -0.2705315564
 H -0.0153293782 -0.1897258377  0.7091649730
 H  0.2935336856  0.5872578289 -0.5712084848
3
step 141
 O -0.0463691764 -0.2979703489 -0.2721205211
 H -0.0231796114 -0.1901812542  0.7083040090
 H  0.2919425060  0.5830855153 -0.5786099488
3
step 142
 O -0.0461776122 -0.2999011578 -0.2738038147
 H -0.0309914495 -0.1900961766  0.7076865728
 H  0.2901683289  0.5784633350 -0.5854606579
3
step 143
 O -0.0459926324 -0.3019046009 -0.2755732576
 H -0.0387254142 -0.1893587578  0.7070875538
 H  0.2882830237  0.5736011746 -0.5916819169
3
step 144
 O -0.0458223139 -0.3040038120 -0.2774152928
 H -0.0463478737 -0.1878849477  0.7062451858
 H  0.2863782572  0.5687665866 -0.5972422716
3
step 145
 O -0.0456746707 -0.3062212610 -0.2793141408
 H -0.0538317423 -0.1856190217  0.7049035340
 H  0.2845515319  0.5642464654 -0.6021498679
3
step 146
 O -0.0455565423 -0.3085759902 -0.2812551887
 H -0.0611580574 -0.1825326751  0.7028543794
 H  0.2828901420  0.5603023653 -0.6064404509
3
step 147
 O -0.0454724846 -0.3110809682 -0.2832280047
 H -0.0683182257 -0.1786231693  0.6999715234
 H  0.2814558281  0.5571267728 -0.6101637077
3
step 148
 O -0.0454238842 -0.3137410478 -0.2852284253
 H -0.0753164672 -0.1739110512  0.6962321159
 H  0.2802732075  0.5548085928 -0.6133712918
3
step 149
 O -0.0454085019 -0.3165519513 -0.2872593087
 H -0.0821718564 -0.1684380174  0.6917215973
 H  0.2793246013  0.5533151110 -0.6161096078
3
step 150
 O -0.0454205691 -0.3195005095 -0.2893297676
 H -0.0889193383 -0.1622655105  0.6866210250
 H  0.2785526140  0.5524945506 -0.6184191579
3
step 151
 O -0.0454514472 -0.3225661025 -0.2914529673
 H -0.0956091892 -0.1554745592  0.6811779822
 H  0.2778700725  0.5520988407 -0.6203403295
3
step 152
 O -0.0454907424 -0.3257229896 -0.2936428657
 H -0.1023046024 -0.1481670883  0.6756650092
 H  0.2771752890  0.5518218374 -0.6219236520
3
step 153
 O -0.0455276832 -0.3289430690 -0.2959105099
 H -0.1090774062 -0.1404684043  0.6703322829
 H  0.2763696090  0.5513454060 -0.6232414417
3
step 154
 O -0.0455525337 -0.3321986053 -0.2982606431
 H -0.1160023276 -0.1325298455  0.6653633143
 H  0.2753740513  0.5503850793 -0.6243976412
3
step 155
 O -0.0455578232 -0.3354645751 -0.3006893441
 H -0.1231506084 -0.1245299427  0.6608427258
 H  0.2741423851  0.5487281349 -0.6255333580
3
step 156
 O -0.0455392148 -0.3387204262 -0.3031832255
 H -0.1305840138 -0.1166721917  0.6567430333
 H  0.2726688654  0.5462590005 -0.6268266593
3
step 157
 O -0.0454958918 -0.3419511615 -0.3057203841
 H -0.1383502564 -0.1091779750  0.6529330950
 H  0.2709897491  0.5429691102 -0.6284861947
3
step 158
 O -0.0454304117 -0.3451477175 -0.3082729327
 H -0.1464805712 -0.1022742405  0.6492058617
 H  0.2691784946  0.5389503278 -0.6307390168
3
step 159
 O -0.0453480447 -0.3483066357 -0.3108106456
 H -0.1549897222 -0.0961768801  0.6453189980
 H  0.2673352331  0.5343728840 -0.6338135652
3
step 160
 O -0.0452556900 -0.3514290797 -0.3133050982
 H -0.1638782542 -0.0910718706  0.6410400451
 H  0.2655717805  0.5294507270 -0.6379193002
3
step 161
 O -0.0451605277 -0.3545193470 -0.3157336669
 H -0.1731364390 -0.0870967952  0.6361881141
 H  0.2639941747  0.5243993422 -0.6432250008
3
step 162
 O -0.0450686208 -0.3575831564 -0.3180828293
 H -0.1827491514 -0.0843253472  0.6306658383
 H  0.2626853696  0.5193931226 -0.6498382789
3
step 163
 O -0.0449837072 -0.3606260883 -0.3203503201
 H -0.1927007994 -0.0827570032  0.6244774321
 H  0.2616910317  0.5145304868 -0.6577892279
3
step 164
 O -0.0449064101 -0.3636525552 -0.3225458211
 H -0.2029793801 -0.0823134741  0.6177305592
 H  0.2610111106  0.5098142610 -0.6670210730
3
step 165
 O -0.0448340322 -0.3666655425 -0.3246900082
 H -0.2135787159 -0.0828428710  0.6106212823
 H  0.2605988576  0.5051519875 -0.6773900074
3
step 166
 O -0.0447609999 -0.3696671335 -0.3268119658
 H -0.2244980140 -0.0841317130  0.6034030473
 H  0.2603674592  0.5003763883 -0.6886750831
3
step 167
 O -0.0446799040 -0.3726596044 -0.3289452279
 H -0.2357382028 -0.0859238472  0.5963429178
 H  0.2602028828  0.4952816091 -0.7005973389
3
step 168
 O -0.0445829700 -0.3756467464 -0.3311229789
 H -0.2472951568 -0.0879441062  0.5896711364
 H  0.2599803942  0.4896676435 -0.7128457566
3
step 169
 O -0.0444637017 -0.3786350768 -0.3333731847
 H -0.2591508902 -0.0899233643  0.5835328481
 H  0.2595817796  0.4833842990 -0.7251065522
3
step 170
 O -0.0443183918 -0.3816346965 -0.3357145343
 H -0.2712648159 -0.0916210603  0.5779521386
 H  0.2589105311  0.4763670380 -0.7370919237
3
step 171
 O -0.0441471972 -0.3846596658 -0.3381539688
 H -0.2835677714 -0.0928416450  0.5728171543
 H  0.2579028930  0.4686591477 -0.7485646184
3
step 172
 O -0.0439545384 -0.3877278328 -0.3406862661
 H -0.2959612722 -0.0934428115  0.5678907286
 H  0.2565334228  0.4604170831 -0.7593553210
3
step 173
 O -0.0437487032 -0.3908600696 -0.3432957150
 H -0.3083233093 -0.0933353181  0.5628448921
 H  0.2548144682  0.4518980096 -0.7693707321
3
step 174
 O -0.0435406844 -0.3940788802 -0.3459594973
 H -0.3205203419 -0.0924759875  0.5573121278
 H  0.2527896914  0.4434305805 -0.7785912783
3
step 175
 O -0.0433424314 -0.3974064155 -0.3486521112
 H -0.3324235991 -0.0908564991  0.5509431312
 H  0.2505225946  0.4353720956 -0.7870587716
3
step 176
 O -0.0431648096 -0.4008620568 -0.3513500497
 H -0.3439268745 -0.0884907817  0.5434607017
 H  0.2480819277  0.4280575380 -0.7948560687
3
step 177
 O -0.0430156330 -0.4044599041 -0.3540359557
 H -0.3549627906 -0.0854034298  0.5347014032
 H  0.2455267482  0.4217482595 -0.8020826274
3
step 178
 O -0.0428981444 -0.4082066199 -0.3567015730
 H -0.3655148178 -0.0816210195  0.5246394627
 H  0.2428943859  0.4165894235 -0.8088312406
3
step 179
 O -0.0428102679 -0.4121000827 -0.3593489754
 H -0.3756228692 -0.0771677279  0.5133900601
 H  0.2401942538  0.4125847123 -0.8151713720
3
step 180
 O -0.0427448341 -0.4161291380 -0.3619898052
 H -0.3853809510 -0.0720662757  0.5011915287
 H  0.2374091668  0.4095937666 -0.8211429971
3
step 181
 O -0.0426908067 -0.4202744606 -0.3646425906
 H -0.3949262205 -0.0663446960  0.4883684190
 H  0.2345039117  0.4073529390 -0.8267619656
3
step 182
 O -0.0426353340 -0.4245102730 -0.3673285900
 H -0.4044200773 -0.0600485225  0.4752802958
 H  0.2314389160  0.4055148063 -0.8320346989
3
step 183
 O -0.0425662716 -0.4288065184 -0.3700669581
 H -0.4140236195 -0.0532565623  0.4622643755
 H  0.2281857124  0.4036982578 -0.8369777378
3
step 184
 O -0.0424747008 -0.4331311171 -0.3728702221
 H -0.4238715868 -0.0460967417  0.4495826276
 H  0.2247407894  0.4015398219 -0.8416369469
3
step 185
 O -0.0423569414 -0.4374520795 -0.3757410306
 H -0.4340500648 -0.0387572731  0.4373842571
 H  0.2211351757  0.3987380181 -0.8461019574
3
step 186
 O -0.0422156480 -0.4417394022 -0.3786708484
 H -0.4445829712 -0.0314884512  0.4256915050
 H  0.2174382744  0.3950849274 -0.8505129946
3
step 187
 O -0.0420597703 -0.4459667301 -0.3816408107
 H -0.4554304584 -0.0245921798  0.4144109556
 H  0.2137555746  0.3904818185 -0.8550588880
3
step 188
 O -0.0419033940 -0.4501127192 -0.3846244654
 H -0.4664994262 -0.0183993865  0.4033661037
 H  0.2102207256  0.3849379482 -0.8599663653
3
step 189
 O -0.0417636957 -0.4541619583 -0.3875917790
 H -0.4776635080 -0.0132386022  0.3923423381
 H  0.2069830235  0.3785535439 -0.8654816688
3
step 190
 O -0.0416583773 -0.4581052894 -0.3905136500
 H -0.4887881811 -0.0094009511  0.3811341670
 H  0.2041917671  0.3714897414 -0.8718462725
3
step 191
 O -0.0416029818 -0.4619394625 -0.3933662236
 H -0.4997563617 -0.0071071329  0.3695860954
 H  0.2019792639  0.3639301229 -0.8792692488
3
step 192
 O -0.0416084686 -0.4656662344 -0.3961344371
 H -0.5104905599 -0.0064810614  0.3576215510
 H  0.2004445450  0.3560403131 -0.8878996664
3
step 193
 O -0.0416793672 -0.4692911833 -0.3988143648
 H -0.5209686994 -0.0075334288  0.3452571031
 H  0.1996399714  0.3479332321 -0.8978031039
3
step 194
 O -0.0418127669 -0.4728225759 -0.4014140497
 H -0.5312315338 -0.0101571994  0.3326011587
 H  0.1995627390  0.3396472378 -0.9089465218
3
step 195
 O -0.0419983307 -0.4762705432 -0.4039526364
 H -0.5413801483 -0.0141360226  0.3198374660
 H  0.2001527058  0.3311420544 -0.9211949666
3
step 196
 O -0.0422194211 -0.4796466390 -0.4064577929
 H -0.5515626371 -0.0191654925  0.3071947850
 H  0.2012970073  0.3223133999 -0.9343217827
3
step 197
 O -0.0424552824 -0.4829636672 -0.4089616658
 H -0.5619501906 -0.0248856538  0.2949056891
 H  0.2028408038  0.3130228263 -0.9480315489
3
step 198
 O -0.0426840345 -0.4862355824 -0.4114959071
 H -0.5727048547 -0.0309210340  0.2831598850
 H  0.2046025052  0.3031359573 -0.9619925339
3
step 199
 O -0.0428860192 -0.4894773199 -0.4140865809
 H -0.5839439121 -0.0369222285  0.2720600805
 H  0.2063912070  0.2925610094 -0.9758737758
3
step 200
 O -0.0430468860 -0.4927045451 -0.4167498843
 H -0.5957082146 -0.0426017190  0.2615899105
 H  0.2080239182  0.2812802314 -0.9893812974
3
step 201
 O -0.0431597737 -0.4959334027 -0.4194895259
 H -0.6079424610 -0.0477572130  0.2516022794
 H  0.2093404130  0.2693689537 -1.0022883752
3
step 202
 O -0.0432261063 -0.4991803312 -0.4222962714
 H -0.6204934048 -0.0522786478  0.2418322250
 H  0.2102140254  0.2569994040 -1.0144558419
3
step 203
 O -0.0432548333 -0.5024618899 -0.4251497020
 H -0.6331276209 -0.0561391640  0.2319323017
 H  0.2105573133  0.2444287204 -1.0258397714
3
step 204
 O -0.0432603017 -0.5057944336 -0.4280217847
 H -0.6455654608 -0.0593741247  0.2215229638
 H  0.2103221971  0.2319725550 -1.0364854388
3
step 205
 O -0.0432592263 -0.5091934502 -0.4308815578
 H -0.6575241844 -0.0620542265  0.2102476248
 H  0.2094949623  0.2199674576 -1.0465082245
3
step 206