3
step 0
 O -0.0425822924 -0.0147631161 -0.0169774048
 H  0.6534321057 -0.5164034658  0.4758205453
 H  0.3853501912  0.8762665834 -0.0602431387
3
step 1
 O -0.0432460868 -0.0183310985 -0.0204442259
 H  0.6503597906 -0.5092549948  0.4828060420
 H  0.3890863007  0.8726860948 -0.0637618143
3
step 2
 O -0.0438931661 -0.0218347484 -0.0238829253
 H  0.6474307223 -0.5025290158  0.4898923156
 H  0.3925050995  0.8689974334 -0.0673510979
3
step 3
 O -0.0445112818 -0.0252487690 -0.0272944870
 H  0.6447008304 -0.4965203158  0.4972037021
 H  0.3953573727  0.8650999083 -0.0711138449
3
step 4
 O -0.0450864559 -0.0285575392 -0.0306761097
 H  0.6421429797 -0.4914349740  0.5047989902
 H  0.3974493079  0.8609565624 -0.0751485415
3
step 5
 O -0.0456034393 -0.0317565579 -0.0340206349
 H  0.6396404277 -0.4873785833  0.5126577267
 H  0.3986563085  0.8566052759 -0.0795447352
3
step 6
 O -0.0460468443 -0.0348520808 -0.0373169208
 H  0.6369996880 -0.4843593905  0.5206816691
 H  0.3989281151  0.8521562149 -0.0843784670
3
step 7
 O -0.0464027665 -0.0378591615 -0.0405511289
 H  0.6339799642 -0.4823039188  0.5287110961
 H  0.3982851462  0.8477765222 -0.0897080235
3
step 8
 O -0.0466605445 -0.0407985341 -0.0437086788
 H  0.6303325855 -0.4810805514  0.5365523090
 H  0.3968070236  0.8436645723 -0.0955702530
3
step 9
 O -0.0468142740 -0.0436928840 -0.0467765076
 H  0.6258423922 -0.4805259995  0.5440106683
 H  0.3946152408  0.8400174004 -0.1019775956
3
step 10
 O -0.0468637947 -0.0465630842 -0.0497452521
 H  0.6203637840 -0.4804702886  0.5509232230
 H  0.3918528160  0.8369961117 -0.1089159237
3
step 11
 O -0.0468150407 -0.0494249495 -0.0526110308
 H  0.6138462346 -0.4807571929  0.5571859367
 H  0.3886643629  0.8346949752 -0.1163433145
3
step 12
 O -0.0466797880 -0.0522869885 -0.0553765849
 H  0.6063463978 -0.4812583060  0.5627719131
 H  0.3851800187  0.8331200006 -0.1241899749
3
step 13
 O -0.0464749076 -0.0551495057 -0.0580516182
 H  0.5980258329 -0.4818798456  0.5677383244
 H  0.3815058896  0.8321816361 -0.1323596461
3
step 14
 O -0.0462212256 -0.0580052088 -0.0606522387
 H  0.5891348087 -0.4825619256  0.5722208487
 H  0.3777221641  0.8317037307 -0.1407328420
3
step 15
 O -0.0459420585 -0.0608412307 -0.0631994902
 H  0.5799839238 -0.4832706359  0.5764155590
 H  0.3738882229  0.8314476212 -0.1491721449
3
step 16
 O -0.0456614853 -0.0636422211 -0.0657170686
 H  0.5709067521 -0.4839841429  0.5805497550
 H  0.3700525364  0.8311470866 -0.1575294739
3
step 17
 O -0.0454024767 -0.0663939525 -0.0682284798
 H  0.5622184321 -0.4846752432  0.5848453318
 H  0.3662643287  0.8305478665 -0.1656548440
3
step 18
 O -0.0451850927 -0.0690867707 -0.0707540514
 H  0.5541765898 -0.4852940729  0.5894805468
 H  0.3625839988  0.8294448999 -0.1734057797
3
step 19
 O -0.0450250273 -0.0717182267 -0.0733083296
 H  0.5469514168 -0.4857554186  0.5945575919
 H  0.3590899253  0.8277112677 -0.1806563503
3
step 20
 O -0.0449327577 -0.0742943632 -0.0758983737
 H  0.5406104285 -0.4859346234  0.6000831490
 H  0.3558801953  0.8253145104 -0.1873047997
3
step 21
 O -0.0449134201 -0.0768293797 -0.0785233023
 H  0.5351203813 -0.4856742249  0.6059666496
 H  0.3530687366  0.8223180397 -0.1932789238
3
step 22
 O -0.0449673454 -0.0793437114 -0.0811751638
 H  0.5303649420 -0.4848006714  0.6120368184
 H  0.3507761752  0.8188674910 -0.1985386682
3
step 23
 O -0.0450910243 -0.0818608579 -0.0838409069
 H  0.5261733654 -0.4831478043  0.6180727702
 H  0.3491164964  0.8151639981 -0.2030758311
3
step 24
 O -0.0452782087 -0.0844035264 -0.0865050071
 H  0.5223537519 -0.4805822442  0.6238429749
 H  0.3481812944  0.8114284797 -0.2069112252
3
step 25
 O -0.0455209099 -0.0869897727 -0.0891522250
 H  0.5187246465 -0.4770257800  0.6291445572
 H  0.3480240308  0.8078628863 -0.2100900927
3
step 26
 O -0.0458101677 -0.0896298194 -0.0917700114
 H  0.5151402189 -0.4724709803  0.6338363600
 H  0.3486470953  0.8046154478 -0.2126768646
3
step 27
 O -0.0461365819 -0.0923241143 -0.0943501946
 H  0.5115061674 -0.4669878738  0.6378610956
 H  0.3499943588  0.8017566922 -0.2147503746
3
step 28
 O -0.0464906541 -0.0950629703 -0.0968897354
 H  0.5077851853 -0.4607210973  0.6412539250
 H  0.3519511623  0.7992710196 -0.2164003227
3
step 29
 O -0.0468629889 -0.0978278384 -0.0993904809
 H  0.5039921222 -0.4538781557  0.6441365759
 H  0.3543523655  0.7970652485 -0.2177252146
3
step 30
 O -0.0472443708 -0.1005939641 -0.1018579905
 H  0.5001800460 -0.4467104194  0.6466977311
 H  0.3569975006  0.7949917598 -0.2188314103
3
step 31
 O -0.0476257139 -0.1033339340 -0.1042996349
 H  0.4964194817 -0.4394893114  0.6491621377
 H  0.3596707099  0.7928808574 -0.2198325076
3
step 32
 O -0.0479979039 -0.1060214838 -0.1067222965
 H  0.4927742598 -0.4324808198  0.6517528074
 H  0.3621623680  0.7905755589 -0.2208482138
3
step 33
 O -0.0483516132 -0.1086349382 -0.1091300944
 H  0.4892784046 -0.4259218258  0.6546524711
 H  0.3642892138  0.7879623430 -0.2220020719
3
step 34
 O -0.0486772180 -0.1111597608 -0.1115225963
 H  0.4859188363 -0.4200015056  0.6579714077
 H  0.3659103261  0.7849929102 -0.2234177826
3
step 35
 O -0.0489649561 -0.1135898832 -0.1138939171
 H  0.4826278732 -0.4148501138  0.6617281328
 H  0.3669371051  0.7816940434 -0.2252142242
3
step 36
 O -0.0492053879 -0.1159277061 -0.1162329358
 H  0.4792874984 -0.4105359626  0.6658469685
 H  0.3673363435  0.7781646294 -0.2274995423
3
step 37
 O -0.0493901161 -0.1181828699 -0.1185246203
 H  0.4757446447 -0.4070698029  0.6701727987
 H  0.3671263737  0.7745606139 -0.2303648130
3
step 38
 O -0.0495126124 -0.1203700672 -0.1207522097
 H  0.4718342568 -0.4044146122  0.6744995833
 H  0.3663671363  0.7710701484 -0.2338778203
3
step 39
 O -0.0495689595 -0.1225062812 -0.1228998492
 H  0.4674054355 -0.4024982782  0.6786066640
 H  0.3651458430  0.7678825338 -0.2380774708
3
step 40
 O -0.0495583597 -0.1246079003 -0.1249552180
 H  0.4623458572 -0.4012268221  0.6822961197
 H  0.3635606340  0.7651557276 -0.2429693449
3
step 41
 O -0.0494833412 -0.1266881648 -0.1269117412
 H  0.4566005832 -0.4004963394  0.6854251542
 H  0.3617050671  0.7629878776 -0.2485228742
3
step 42
 O -0.0493496815 -0.1287553570 -0.1287700735
 H  0.4501827754 -0.4002024630  0.6879290377
 H  0.3596562110  0.7613981627 -0.2546706249
3
step 43
 O -0.0491661084 -0.1308120236 -0.1305386519
 H  0.4431752056 -0.4002466708  0.6898317967
 H  0.3574684047  0.7603208690 -0.2613101053
3
step 44
 O -0.0489438309 -0.1328553459 -0.1322332243
 H  0.4357225949 -0.4005391410  0.6912433679
 H  0.3551734877  0.7596141916 -0.2683083436
3
step 45
 O -0.0486959218 -0.1348785674 -0.1338753664
 H  0.4280157895 -0.4009981854  0.6923433505
 H  0.3527868261  0.7590823098 -0.2755091847
3
step 46
 O -0.0484365549 -0.1368731936 -0.1354901229
 H  0.4202697074 -0.4015466841  0.6933530736
 H  0.3503172381  0.7585066718 -0.2827428680
3
step 47
 O -0.0481801168 -0.1388315498 -0.1371030509
 H  0.4126979458 -0.4021064722  0.6944995682
 H  0.3477782695  0.7576808432 -0.2898370543
3
step 48
 O -0.0479402663 -0.1407492210 -0.1387370812
 H  0.4054877423 -0.4025922065  0.6959769913
 H  0.3451982785  0.7564429805 -0.2966281865
3
step 49
 O -0.0477290630 -0.1426269263 -0.1404097093
 H  0.3987792935 -0.4029066690  0.6979124225
 H  0.3426272751  0.7547007866 -0.3029719634
3
step 50
 O -0.0475563017 -0.1444714703 -0.1421310213
 H  0.3926528992 -0.4029394438  0.7003429487
 H  0.3401391909  0.7524452520 -0.3087517924
3
step 51
 O -0.0474291398 -0.1462955646 -0.1439029280
 H  0.3871259256 -0.4025702755  0.7032090627
 H  0.3378290223  0.7497511981 -0.3138843354
3
step 52
 O -0.0473520280 -0.1481165004 -0.1457197372
 H  0.3821595098 -0.4016772593  0.7063659197
 H  0.3358050201  0.7467644301 -0.3183216358
3
step 53
 O -0.0473268643 -0.1499538486 -0.1475699124
 H  0.3776729144 -0.4001487004  0.7096099779
 H  0.3341767938  0.7436771533 -0.3220497990
3
step 54
 O -0.0473532471 -0.1518265793 -0.1494385982
 H  0.3735625123 -0.3978961574  0.7127151991
 H  0.3330403500  0.7406953232 -0.3250850811
3
step 55
 O -0.0474287690 -0.1537499732 -0.1513105250
 H  0.3697201565 -0.3948674771  0.7154723455
 H  0.3324643979  0.7380027153 -0.3274670188
3
step 56
 O -0.0475492400 -0.1557330275 -0.1531725671
 H  0.3660499802 -0.3910557019  0.7177233753
 H  0.3324770981  0.7357287215 -0.3292521778
3
step 57
 O -0.0477089088 -0.1577767395 -0.1550156732
 H  0.3624799288 -0.3865036067  0.7193864702
 H  0.3330580616  0.7339257140 -0.3305084553
3
step 58
 O -0.0479007135 -0.1598736223 -0.1568358560
 H  0.3589672880 -0.3813029279  0.7204681504
 H  0.3341368168  0.7325606825 -0.3313114057
3
step 59
 O -0.0481165903 -0.1620085499 -0.1586341378
 H  0.3554979973 -0.3755884510  0.7210611711
 H  0.3355984029  0.7315227877 -0.3317429446
3
step 60
 O -0.0483478290 -0.1641607662 -0.1604155120
 H  0.3520803257 -0.3695277740  0.7213287090
 H  0.3372953421  0.7306450271 -0.3318920061
3
step 61
 O -0.0485854323 -0.1663066807 -0.1621871288
 H  0.3487341791 -0.3633080706  0.7214771131
 H  0.3390640268  0.7297353238 -0.3318561364
3
step 62
 O -0.0488204325 -0.1684229532 -0.1639560351
 H  0.3454779770 -0.3571215323  0.7217212420
 H  0.3407428509  0.7286108365 -0.3317427929
3
step 63
 O -0.0490441476 -0.1704893624 -0.1657268841
 H  0.3423155785 -0.3511513022  0.7222479620
 H  0.3421893273  0.7271293203 -0.3316692958
3
step 64
 O -0.0492483993 -0.1724910396 -0.1675000581
 H  0.3392259683 -0.3455595503  0.7231842291
 H  0.3432938533  0.7252125703 -0.3317607865
3
step 65
 O -0.0494257401 -0.1744197913 -0.1692705950
 H  0.3361580787 -0.3404788653  0.7245757869
 H  0.3439884726  0.7228587456 -0.3321460255
3
step 66
 O -0.0495697209 -0.1762743923 -0.1710281627
 H  0.3330321506 -0.3360074440  0.7263806183
 H  0.3442497660  0.7201421975 -0.3329512592
3
step 67
 O -0.0496751926 -0.1780598837 -0.1727581204
 H  0.3297476142 -0.3322078492  0.7284782405
 H  0.3440957566  0.7172010924 -0.3342926717
3
step 68
 O -0.0497385884 -0.1797860388 -0.1744434824
 H  0.3261960165 -0.3291085894  0.7306926124
 H  0.3435774632  0.7142146483 -0.3362681059
3
step 69
 O -0.0497581152 -0.1814652619 -0.1760674324
 H  0.3222765001 -0.3267075585  0.7328238434
 H  0.3427664676  0.7113732481 -0.3389488471
3
step 70
 O -0.0497338051 -0.1831102658 -0.1776159552
 H  0.3179109981 -0.3249764284  0.7346826882
 H  0.3417405373  0.7088459904 -0.3423723246
3
step 71
 O -0.0496674245 -0.1847319117 -0.1790801629
 H  0.3130566168 -0.3238652960  0.7361220004
 H  0.3405698066  0.7067510992 -0.3465366060
3
step 72
 O -0.0495622860 -0.1863375839 -0.1804579676
 H  0.3077133923 -0.3233071170  0.7370604613
 H  0.3393060507  0.7051346124 -0.3513975169
3
step 73
 O -0.0494230281 -0.1879303839 -0.1817548613
 H  0.3019264452 -0.3232216309  0.7374954237
 H  0.3379770440  0.7039615741 -0.3568690505
3
step 74
 O -0.0492554091 -0.1895092767 -0.1829836801
 H  0.2957823585 -0.3235186001  0.7375032691
 H  0.3365869151  0.7031216461 -0.3628274195
3
step 75
 O -0.0490661217 -0.1910701351 -0.1841633552
 H  0.2894003033 -0.3241002659  0.7372271770
 H  0.3351220826  0.7024481456 -0.3691186537
3
step 76
 O -0.0488626017 -0.1926074519 -0.1853167793
 H  0.2829190749 -0.3248630356  0.7368537673
 H  0.3335611754  0.7017468573 -0.3755691342
3
step 77
 O -0.0486527949 -0.1941163694 -0.1864680568
 H  0.2764817757 -0.3256985728  0.7365817796
 H  0.3318866360  0.7008292669 -0.3819980088
3
step 78
 O -0.0484448680 -0.1955946388 -0.1876395232
 H  0.2702203286 -0.3264946783  0.7365876228
 H  0.3300955947  0.6995444340 -0.3882301350
3
step 79
 O -0.0482468807 -0.1970441470 -0.1888490048
 H  0.2642421613 -0.3271365360  0.7369938245
 H  0.3282079706  0.6978043906 -0.3941081189
3
step 80
 O -0.0480664603 -0.1984717340 -0.1901077839
 H  0.2586211124 -0.3275089663  0.7378465060
 H  0.3262703867  0.6955992908 -0.3995021416
3
step 81
 O -0.0479105137 -0.1998891302 -0.1914196339
 H  0.2533938334 -0.3275001744  0.7391066085
 H  0.3243551860  0.6930001426 -0.4043165435
3
step 82
 O -0.0477849839 -0.2013119789 -0.1927810858
 H  0.2485618436 -0.3270070986  0.7406568286
 H  0.3225545154  0.6901486092 -0.4084925457
3
step 83
 O -0.0476946312 -0.2027580417 -0.1941828438
 H  0.2440982722 -0.3259419586  0.7423228286
 H  0.3209701033  0.6872350702 -0.4120070006
3
step 84
 O -0.0476428071 -0.2042448290 -0.1956120428
 H  0.2399575104 -0.3242391571  0.7439043175
 H  0.3197000158  0.6844678958 -0.4148676552
3
step 85
 O -0.0476312105 -0.2057870147 -0.1970548923
 H  0.2360856997 -0.3218614591  0.7452098905
 H  0.3188243029  0.6820385964 -0.4171060298
3
step 86
 O -0.0476596569 -0.2073940743 -0.1984992100
 H  0.2324301682 -0.3188044248  0.7460893272
 H  0.3183918972  0.6800887707 -0.4187694976
3
step 87
 O -0.0477259249 -0.2090685812 -0.1999364018
 H  0.2289464182 -0.3150983559  0.7464580853
 H  0.3184111988  0.6786850432 -0.4199143143
3
step 88
 O -0.0478257549 -0.2108055011 -0.2013625746
 H  0.2256018758 -0.3108074187  0.7463104353
 H  0.3188463077  0.6778070303 -0.4206010547
3
step 89
 O -0.0479530451 -0.2125926369 -0.2027786321
 H  0.2223761870 -0.3060260297  0.7457195753
 H  0.3196198491  0.6773508250 -0.4208931721
3
step 90
 O -0.0481002408 -0.2144121464 -0.2041893816
 H  0.2192583448 -0.3008729575  0.7448249265
 H  0.3206220279  0.6771471972 -0.4208584565
3
step 91
 O -0.0482588625 -0.2162428452 -0.2056018438
 H  0.2162413719 -0.2954838692  0.7438085817
 H  0.3217243204  0.6769906613 -0.4205723400
3
step 92
 O -0.0484200916 -0.2180628765 -0.2070230884
 H  0.2133156571 -0.2900032002  0.7428645553
 H  0.3227954260  0.6766736643 -0.4201215606
3
step 93
 O -0.0485753395 -0.2198523048 -0.2084580036
 H  0.2104623341 -0.2845762209  0.7421658654
 H  0.3237168987  0.6760197339 -0.4196067257
3
step 94
 O -0.0487167487 -0.2215952533 -0.2099074296
 H  0.2076481880 -0.2793420005  0.7418352125
 H  0.3243961902  0.6749102911 -0.4191426936
3
step 95
 O -0.0488376058 -0.2232813249 -0.2113670302
 H  0.2048233874 -0.2744276640  0.7419246707
 H  0.3247754507  0.6733013971 -0.4188562275
3
step 96
 O -0.0489326528 -0.2249061776 -0.2128271469
 H  0.2019228155 -0.2699439989  0.7424082151
 H  0.3248351410  0.6712284586 -0.4188808863
3
step 97
 O -0.0489982841 -0.2264712478 -0.2142736876
 H  0.1988710172 -0.2659822065  0.7431883162
 H  0.3245922016  0.6687985640 -0.4193495240
3
step 98
 O -0.0490326044 -0.2279827155 -0.2156899082
 H  0.1955899861 -0.2626114941  0.7441149653
 H  0.3240931858  0.6661716376 -0.4203850621
3
step 99
 O -0.0490353291 -0.2294498936 -0.2170587776
 H  0.1920084244 -0.2598772748  0.7450131476
 H  0.3234034118  0.6635330628 -0.4220904212
3
step 100
 O -0.0490075309 -0.2308833000 -0.2183655340
 H  0.1880708737 -0.2577998959  0.7457135488
 H  0.3225938219  0.6610618163 -0.4245386654
3
step 101
 O -0.0489512798 -0.2322927319 -0.2196000242
 H  0.1837452339 -0.2563739798  0.7460812341
 H  0.3217277385  0.6588992568 -0.4277645255
3
step 102
 O -0.0488692528 -0.2336856796 -0.2207584763
 H  0.1790275571 -0.2555685356  0.7460378947
 H  0.3208498909  0.6571241022 -0.4317584804
3
step 103
 O -0.0487644063 -0.2350663747 -0.2218444437
 H  0.1739434864 -0.2553279987  0.7455745486
 H  0.3199797848  0.6557384066 -0.4364644207
3
step 104
 O -0.0486397795 -0.2364356488 -0.2228687746
 H  0.1685461978 -0.2555742759  0.7447530062
 H  0.3191106483  0.6546674121 -0.4417815582
3
step 105
 O -0.0484984520 -0.2377916134 -0.2238485827
 H  0.1629111534 -0.2562097678  0.7436958258
 H  0.3182140080  0.6537733826 -0.4475706985
3
step 106
 O -0.0483436284 -0.2391309984 -0.2248053275
 H  0.1571283752 -0.2571212308  0.7425659613
 H  0.3172487564  0.6528807004 -0.4536643617
3
step 107
 O -0.0481787912 -0.2404508607 -0.2257622492
 H  0.1512932886 -0.2581842675  0.7415388659
 H  0.3161727277  0.6518074279 -0.4598796539
3
step 108
 O -0.0480078578 -0.2417503205 -0.2267415195
 H  0.1454974193 -0.2592682073  0.7407713368
 H  0.3149544799  0.6503976721 -0.4660324005
3
step 109
 O -0.0478352921 -0.2430320003 -0.2277615503
 H  0.1398202833 -0.2602411653  0.7403724869
 H  0.3135831614  0.6485494125 -0.4719509089
3
step 110
 O -0.0476661405 -0.2443029111 -0.2288349062
 H  0.1343236046 -0.2609751225  0.7403824037
 H  0.3120748487  0.6462335828 -0.4774878131
3
step 111
 O -0.0475059718 -0.2455746200 -0.2299671829
 H  0.1290485442 -0.2613509164  0.7407629489
 H  0.3104743643  0.6435016811 -0.4825287306
3
step 112
 O -0.0473607042 -0.2468626333 -0.2311570381
 H  0.1240160009 -0.2612630318  0.7414028174
 H  0.3088522184  0.6404807307 -0.4869968507
3
step 113
 O -0.0472363005 -0.2481850290 -0.2323973476
 H  0.1192294456 -0.2606240254  0.7421360015
 H  0.3072969297  0.6373559819 -0.4908530808
3
step 114
 O -0.0471383265 -0.2495604839 -0.2336772431
 H  0.1146793335 -0.2593683447  0.7427700559
 H  0.3059036072  0.6343433832 -0.4940919893
3
step 115
 O -0.0470714013 -0.2510059473 -0.2349846353
 H  0.1103480018 -0.2574552476  0.7431187935
 H  0.3047603151  0.6316555675 -0.4967344748
3
step 116
 O -0.0470386077 -0.2525343139 -0.2363087531
 H  0.1062140759 -0.2548705477  0.7430335736
 H  0.3039343160  0.6294666495 -0.4988187534
3
step 117
 O -0.0470409716 -0.2541524935 -0.2376422459
 H  0.1022556807 -0.2516270102  0.7424280098
 H  0.3034605944  0.6278820107 -0.5003916793
3
step 118
 O -0.0470771261 -0.2558602485 -0.2389824859
 H  0.0984520755 -0.2477633716  0.7412923081
 H  0.3033349023  0.6269189124 -0.5015023719
3
step 119
 O -0.0471432516 -0.2576500429 -0.2403318514
 H  0.0947836364 -0.2433421365  0.7396951296
 H  0.3035128331  0.6265019480 -0.5021995226
3
step 120
 O -0.0472333240 -0.2595079479 -0.2416969520
 H  0.0912303750 -0.2384464627  0.7377726538
 H  0.3039152542  0.6264743458 -0.5025327207
3
step 121
 O -0.0473396371 -0.2614154352 -0.2430869384
 H  0.0877694054 -0.2331765439  0.7357063297
 H  0.3044391297  0.6266228232 -0.5025570200
3
step 122
 O -0.0474535113 -0.2633517220 -0.2445112053
 H  0.0843719599 -0.2276459084  0.7336925962
 H  0.3049717512  0.6267110864 -0.5023391390
3
step 123
 O -0.0475660798 -0.2652962633 -0.2459769145
 H  0.0810006791 -0.2219779274  0.7319094523
 H  0.3054059172  0.6265158427 -0.5019633909
3
step 124
 O -0.0476690496 -0.2672310112 -0.2474868133
 H  0.0776079342 -0.2163025938  0.7304857374
 H  0.3056536812  0.6258593928 -0.5015356453
3
step 125
 O -0.0477553577 -0.2691421576 -0.2490377837
 H  0.0741358145 -0.2107533523  0.7294788945
 H  0.3056567641  0.6246340735 -0.5011841580
3
step 126
 O -0.0478196626 -0.2710211886 -0.2506204295
 H  0.0705181222 -0.2054635564  0.7288655515
 H  0.3053923660  0.6228154364 -0.5010567201
3
step 127
 O -0.0478586294 -0.2728651857 -0.2522198131
 H  0.0666843034 -0.2005621006  0.7285466993
 H  0.3048737601  0.6204626694 -0.5013141309
3
step 128
 O -0.0478709761 -0.2746763908 -0.2538172382
 H  0.0625648177 -0.1961679829  0.7283662355
 H  0.3041456594  0.6177062796 -0.5021204312
3
step 129
 O -0.0478572674 -0.2764611237 -0.2553927872
 H  0.0580971372 -0.1923839058  0.7281390765
 H  0.3032749553  0.6147245520 -0.5036306906
3
step 130
 O -0.0478194767 -0.2782282155 -0.2569282125
 H  0.0532314521 -0.1892894134  0.7276835575
 H  0.3023380727  0.6117118959 -0.5059774592
3
step 131
 O -0.0477603825 -0.2799872068 -0.2584097420
 H  0.0479352446 -0.1869343294  0.7268526062
 H  0.3014068321  0.6088437905 -0.5092572982
3
step 132
 O -0.0476829087 -0.2817466276 -0.2598303929
 H  0.0421961170 -0.1853333657  0.7255588821
 H  0.3005351918  0.6062442567 -0.5135190350
3
step 133
 O -0.0475895461 -0.2835126974 -0.2611914585
 H  0.0360225494 -0.1844627015  0.7237902713
 H  0.2997493355  0.6039620318 -0.5187554475
3
step 134
 O -0.0474819757 -0.2852887249 -0.2625029309
 H  0.0294425618 -0.1842591448  0.7216134453
 H  0.2990430897  0.6019604472 -0.5248998655
3
step 135
 O -0.0473609727 -0.2870753370 -0.2637827441
 H  0.0225005379 -0.1846222204  0.7191645518
 H  0.2983796207  0.6001234256 -0.5318286183
3
step 136
 O -0.0472265990 -0.2888714833 -0.2650548712
 H  0.0152527198 -0.1854191985  0.7166276297
 H  0.2976990367  0.5982766601 -0.5393694419
3
step 137
 O -0.0470786118 -0.2906759837 -0.2663465482
 H  0.0077613427 -0.1864928900  0.7142034822
 H  0.2969307676  0.5962201507 -0.5473142454
3
step 138
 O -0.0469170608 -0.2924892803 -0.2676847217
 H  0.0000911414 -0.1876707497  0.7120721369
 H  0.2960065629  0.5937652259 -0.5554378447
3
step 139
 O -0.0467428617 -0.2943150492 -0.2690926710
 H -0.0076953759 -0.1887754120  0.7103571775
 H  0.2948743322  0.5907707515 -0.5635158278
3
step 140
 O -0.0465583014 -0.2961613781 -0.2705871095
 H -0.0155405701 -0.1896347479  0.7090977518
 H  0.2935088271  0.5871719588 -0.5713424718
3
step 141
 O -0.0463673621 -0.2980412947 -0.2721763641
 H -0.0233928655 -0.1900906515  0.7082348419
 H  0.2919179942  0.5829977227 -0.5787458358
3
step 142
 O -0.0461757787 -0.2999725212 -0.2738599676
 H -0.0312068662 -0.1900058648  0.7076154223
 H  0.2901440225  0.5783735860 -0.5855982677
3
step 143
 O -0.0459907679 -0.3019764078 -0.2756297352
 H -0.0389430515 -0.1892685500  0.7070143019
 H  0.2882587593  0.5735095071 -0.5918210760
3
step 144
 O -0.0458204090 -0.3040760923 -0.2774721038
 H -0.0465677375 -0.1877946803  0.7061696309
 H  0.2863538576  0.5686731192 -0.5973828292
3
step 145
 O -0.0456727191 -0.3062940478 -0.2793712866
 H -0.0540537856 -0.1855285617  0.7048253991
 H  0.2845268130  0.5641513971 -0.6022917091
3
step 146
 O -0.0455545404 -0.3086493193 -0.2813126651
 H -0.0613821890 -0.1824419203  0.7027733317
 H  0.2828649186  0.5602059645 -0.6065835029
3
step 147
 O -0.0454704307 -0.3111548770 -0.2832858034
 H -0.0685443273 -0.1785320419  0.6998872013
 H  0.2814299176  0.5570293557 -0.6103079367
3
step 148
 O -0.0454217772 -0.3138155741 -0.2852865361
 H -0.0755444160 -0.1738194873  0.6961441593
 H  0.2802464323  0.5547104933 -0.6135166935
3
step 149
 O -0.0454063399 -0.3166271317 -0.2873177228
 H -0.0824015499 -0.1683459548  0.6916296777
 H  0.2792967908  0.5532166459 -0.6162561928
3
step 150
 O -0.0454183481 -0.3195763783 -0.2893884797
 H -0.0891507170 -0.1621728784  0.6865248703
 H  0.2785236076  0.5523959864 -0.6185669368
3
step 151
 O -0.0454491605 -0.3226426898 -0.2915119774
 H -0.0958422527 -0.1553812716  0.6810773926
 H  0.2778397246  0.5520003658 -0.6204893009
3
step 152
 O -0.0454883805 -0.3258003204 -0.2937021797
 H -0.1025394163 -0.1480730458  0.6755598626
 H  0.2771434764  0.5517235447 -0.6220737983
3
step 153
 O -0.0455252348 -0.3290211620 -0.2959701390
 H -0.1093140956 -0.1403735038  0.6702225273
 H  0.2763362396  0.5512472863 -0.6233927305
3
step 154
 O -0.0455499873 -0.3322774722 -0.2983206023
 H -0.1162410599 -0.1324339993  0.6652489511
 H  0.2753390739  0.5502870262 -0.6245500345
3
step 155
 O -0.0455551697 -0.3355442196 -0.3007496495
 H -0.1233915655 -0.1244331033  0.6607237860
 H  0.2741057977  0.5486299584 -0.6256868265
3
step 156
 O -0.0455364495 -0.3388008435 -0.3032438918
 H -0.1308273604 -0.1165743784  0.6566195535
 H  0.2726307221  0.5461604469 -0.6269811984
3
step 157
 O -0.0454930168 -0.3420323388 -0.3057814226
 H -0.1385961091 -0.1090792972  0.6528050987
 H  0.2709501636  0.5428698860 -0.6286418407
3
step 158
 O -0.0454274374 -0.3452296341 -0.3083343497
 H -0.1467289749 -0.1021749112  0.6490733478
 H  0.2691376402  0.5388501234 -0.6308958593
3
step 159
 O -0.0453449903 -0.3483892645 -0.3108724416
 H -0.1552406384 -0.0960772175  0.6451819395
 H  0.2672933387  0.5342713948 -0.6339717551
3
step 160
 O -0.0452525827 -0.3515123890 -0.3133672687
 H -0.1641315623 -0.0909722854  0.6408983951
 H  0.2655291227  0.5293476696 -0.6380790493
3
step 161
 O -0.0451574013 -0.3546033026 -0.3157962033
 H -0.1733919514 -0.0869977650  0.6360418169
 H  0.2639510667  0.5242944623 -0.6433865731
3
step 162
 O -0.0450655129 -0.3576677237 -0.3181457209
 H -0.1830066398 -0.0842273812  0.6305148423
 H  0.2626421461  0.5192861950 -0.6500019729
3
step 163
 O -0.0449806562 -0.3607112346 -0.3204135564
 H -0.1929600287 -0.0826606012  0.6243217023
 H  0.2616480323  0.5144213077 -0.6579553517
3
step 164
 O -0.0449034515 -0.3637382514 -0.3226093947
 H -0.2032401450 -0.0822190847  0.6175700866
 H  0.2609686611  0.5097026363 -0.6671899145
3
step 165
 O -0.0448311956 -0.3667517647 -0.3247539162
 H -0.2138408750 -0.0827508546  0.6104560890
 H  0.2605572516  0.5050377208 -0.6775618049
3
step 166
 O -0.0447583059 -0.3697538643 -0.3268762118
 H -0.2247615153 -0.0840423143  0.6032331858
 H  0.2603269408  0.5002592733 -0.6888500003
3
step 167
 O -0.0446773628 -0.3727468335 -0.3290098227
 H -0.2360030961 -0.0858371827  0.5961684624
 H  0.2601636317  0.4951614293 -0.7007754486
3
step 168
 O -0.0445805811 -0.3757344711 -0.3311879390
 H -0.2475615886 -0.0878601682  0.5894921676
 H  0.2599425153  0.4895441796 -0.7130270372
3
step 169
 O -0.0444614545 -0.3787233013 -0.3334385309
 H -0.2594190800 -0.0898420414  0.5833494301
 H  0.2595452962  0.4832573437 -0.7252908964
3
step 170
 O -0.0443162684 -0.3817234311 -0.3357802885
 H -0.2715350175 -0.0915421717  0.5777642934
 H  0.2588753834  0.4762364147 -0.7372791594
3
step 171
 O -0.0441451754 -0.3847489255 -0.3382201509
 H -0.2838402252 -0.0927649812  0.5726248376
 H  0.2578689411  0.4685247308 -0.7487545384
3
step 172
 O -0.0439525955 -0.3878176362 -0.3407528904
 H -0.2962361574 -0.0933681744  0.5676938128
 H  0.2565004540  0.4602788161 -0.7595477182
3
step 173
 O -0.0437468184 -0.3909504372 -0.3433627876
 H -0.3086007060 -0.0932625539  0.5626431599
 H  0.2547822080  0.4517559184 -0.7695654351
3
step 174
 O -0.0435388416 -0.3941698341 -0.3460270146
 H -0.3208002105 -0.0924050064  0.5571052779
 H  0.2527578168  0.4432847803 -0.7787881819
3
step 175
 O -0.0433406197 -0.3974979784 -0.3487200597
 H -0.3327057803 -0.0907872813  0.5507307940
 H  0.2504907488  0.4352227886 -0.7872578583
3
step 176
 O -0.0431630234 -0.4009542522 -0.3514184067
 H -0.3442111096 -0.0884233697  0.5432424625
 H  0.2480497350  0.4279050012 -0.7950574156
3
step 177
 O -0.0430138699 -0.4045527557 -0.3541046918
 H -0.3552487591 -0.0853379105  0.5344768285
 H  0.2454938274  0.4215928228 -0.8022863979
3
step 178
 O -0.0428964036 -0.4083001512 -0.3567706550
 H -0.3658021860 -0.0815575000  0.5244081261
 H  0.2428603639  0.4164314394 -0.8090376608
3
step 179
 O -0.0428085471 -0.4121943169 -0.3594183700
 H -0.3759113416 -0.0771063091  0.5131515656
 H  0.2401587775  0.4124245217 -0.8153806963
3
step 180
 O -0.0427431279 -0.4162240968 -0.3620594828
 H -0.3856703171 -0.0720070298  0.5009455294
 H  0.2373719164  0.4094316647 -0.8213554697
3
step 181
 O -0.0426891052 -0.4203701636 -0.3647125278
 H -0.3952163876 -0.0662876522  0.4881146296
 H  0.2344646141  0.4071891462 -0.8269777853
3
step 182
 O -0.0426336227 -0.4246067361 -0.3673987721
 H -0.4047110828 -0.0599936640  0.4750184996
 H  0.2313973595  0.4053494484 -0.8322539938
3
step 183
 O -0.0425645336 -0.4289037532 -0.3701373796
 H -0.4143156174 -0.0532038387  0.4619944248
 H  0.2281417617  0.4035313564 -0.8372005531
3
step 184
 O -0.0424729197 -0.4332291287 -0.3729408865
 H -0.4241648102 -0.0460460947  0.4493044414
 H  0.2246943977  0.4013712951 -0.8418632474
3
step 185
 O -0.0423551055 -0.4375508650 -0.3758119493
 H -0.4343447684 -0.0387086720  0.4370978178
 H  0.2210863942  0.3985676901 -0.8463316420
3
step 186
 O -0.0422137548 -0.4418389495 -0.3787420390
 H -0.4448793666 -0.0314419308  0.4253968572
 H  0.2173872562  0.3949125436 -0.8507459202
3
step 187
 O -0.0420578301 -0.4460670167 -0.3817122957
 H -0.4557286540 -0.0245478721  0.4141082087
 H  0.2137025734  0.3903070644 -0.8552948969
3
step 188
 O -0.0419014319 -0.4502137128 -0.3846962706
 H -0.4667993845 -0.0183575384  0.4030554370
 H  0.2101660880  0.3847604701 -0.8602053135
3
step 189
 O -0.0417617524 -0.4542636178 -0.3876639321
 H -0.4779650272 -0.0131995766  0.3920240052
 H  0.2069271771  0.3783729684 -0.8657234492
3
step 190
 O -0.0416565072 -0.4582075670 -0.3905861801
 H -0.4890909036 -0.0093652093  0.3808084956
 H  0.2041352038  0.3713056926 -0.8720908295
3
step 191
 O -0.0416012498 -0.4620423068 -0.3934391603
 H -0.5000598078 -0.0070752026  0.3692534793
 H  0.2019225205  0.3637422348 -0.8795165816
3
step 192
 O -0.0416069456 -0.4657695935 -0.3962078102
 H -0.5107941806 -0.0064534947  0.3572824332
 H  0.2003881817  0.3558482379 -0.8881498192
3
step 193
 O -0.0416781243 -0.4693950076 -0.3988882037
 H -0.5212719402 -0.0075107558  0.3449119508
 H  0.1995845497  0.3477366429 -0.8980561440
3
step 194
 O -0.0418118698 -0.4729268212 -0.4014883838
 H -0.5315339020 -0.0101398835  0.3322504325
 H  0.1995087978  0.3394458286 -0.9092025095
3
step 195
 O -0.0419978346 -0.4763751730 -0.4040274950
 H -0.5416812749 -0.0141244223  0.3194815884
 H  0.2001007385  0.3309355388 -0.9214539222
3
step 196
 O -0.0422193660 -0.4797516259 -0.4065332051
 H -0.5518623235 -0.0191598353  0.3068341105
 H  0.2012474397  0.3221015113 -0.9345836583
3
step 197
 O -0.0424556906 -0.4830689938 -0.4090376598
 H -0.5622484312 -0.0248860278  0.2945404801
 H  0.2027939738  0.3128053210 -0.9482962117
3
step 198
 O -0.0426849100 -0.4863412410 -0.4115725096
 H -0.5730018297 -0.0309273974  0.2827902964
 H  0.2045586467  0.3029126207 -0.9622597648
3
step 199
 O -0.0428873495 -0.4895833111 -0.4141638154
 H -0.5842399475 -0.0369344388  0.2716861536
 H  0.2063504388  0.2923316636 -0.9761432860
3
step 200
 O -0.0430486460 -0.4928108757 -0.4168277697
 H -0.5960037143 -0.0426195759  0.2612115774
 H  0.2079862393  0.2810447431 -0.9896527597
3
step 201
 O -0.0431619311 -0.4960400828 -0.4195680743
 H -0.6082378237 -0.0477805075  0.2512193773
 H  0.2093057045  0.2691272397 -1.0025614667
3
step 202
 O -0.0432286277 -0.4992873714 -0.4223754868
 H -0.6207889406 -0.0523072074  0.2414445184
 H  0.2101820597  0.2567514327 -1.0147302922
3
step 203
 O -0.0432576889 -0.5025692994 -0.4252295790
 H -0.6334234859 -0.0561728873  0.2315395086
 H  0.2105277687  0.2441745102 -1.0261154087
3
step 204
 O -0.0432634689 -0.5059022182 -0.4281023078
 H -0.6458616203 -0.0594129987  0.2211247833
 H  0.2102946781  0.2317121678 -1.0367622273
3
step 205
 O -0.0432626915 -0.5093016120 -0.4309627012
 H -0.6578204103 -0.0620983278  0.2098437590
 H  0.2094690219  0.2197009890 -1.0467862860
3
step 206